TITLE = "Example: 2D Finite Element Data"
VARIABLES = "X", "Y", "rho", "u", "v", "p"
ZONE NODES=3423, ELEMENTS = 6644, DATAPACKING = POINT, ZONETYPE = FEQUADRILATERAL, SOLUTIONTIME=8.869671e+00
0.000000 0.000000 0.999423 -0.000171 -0.000292 0.999197
10.000000 0.000000 0.999420 0.000167 -0.000272 0.999193
10.000000 10.000000 0.999417 0.000148 0.000050 0.999189
0.000000 10.000000 0.999419 -0.000194 0.000032 0.999193
0.200000 0.000000 0.999371 -0.000501 -0.000330 0.999125
0.400000 0.000000 0.999256 -0.001000 -0.000324 0.998965
0.600000 0.000000 0.999082 -0.001480 -0.000312 0.998721
0.800000 0.000000 0.998843 -0.001976 -0.000332 0.998389
1.000000 0.000000 0.998510 -0.002552 -0.000364 0.997924
1.200000 0.000000 0.998152 -0.003094 -0.000371 0.997425
1.400000 0.000000 0.997746 -0.003603 -0.000415 0.996859
1.600000 0.000000 0.997275 -0.004161 -0.000471 0.996206
1.800000 0.000000 0.996712 -0.004739 -0.000631 0.995426
2.000000 0.000000 0.996148 -0.005303 -0.000670 0.994646
2.200000 0.000000 0.995525 -0.005812 -0.000773 0.993784
2.400000 0.000000 0.994815 -0.006219 -0.001048 0.992811
2.600000 0.000000 0.994124 -0.006672 -0.001173 0.991866
2.800000 0.000000 0.993477 -0.006922 -0.001237 0.990981
3.000000 0.000000 0.992903 -0.006945 -0.001346 0.990201
3.200000 0.000000 0.992269 -0.006745 -0.001463 0.989346
3.400000 0.000000 0.991671 -0.006268 -0.001683 0.988548
3.600000 0.000000 0.991132 -0.005818 -0.001908 0.987831
3.800000 0.000000 0.990560 -0.005489 -0.001818 0.987058
4.000000 0.000000 0.990174 -0.004388 -0.001748 0.986549
4.200000 0.000000 0.989854 -0.003609 -0.001587 0.986126
4.400000 0.000000 0.989536 -0.002491 -0.001200 0.985698
4.600000 0.000000 0.989223 -0.001327 -0.000692 0.985277
4.800000 0.000000 0.989118 -0.000139 -0.000264 0.985140
5.000000 0.000000 0.988997 0.000921 0.000040 0.984974
5.200000 0.000000 0.989046 0.002195 0.000297 0.985043
5.400000 0.000000 0.989201 0.004138 0.000570 0.985248
5.600000 0.000000 0.989535 0.004733 0.000779 0.985672
5.800000 0.000000 0.989759 0.005624 0.001067 0.985953
6.000000 0.000000 0.990039 0.006378 0.001306 0.986317
6.200000 0.000000 0.990389 0.006987 0.001412 0.986783
6.400000 0.000000 0.990906 0.007813 0.001445 0.987478
6.600000 0.000000 0.991578 0.007851 0.001465 0.988380
6.800000 0.000000 0.992145 0.007987 0.001462 0.989146
7.000000 0.000000 0.992781 0.007754 0.001420 0.990009
7.200000 0.000000 0.993416 0.007548 0.001309 0.990876
7.400000 0.000000 0.994019 0.007230 0.001127 0.991702
7.600000 0.000000 0.994660 0.006784 0.000987 0.992586
7.800000 0.000000 0.995278 0.006291 0.000760 0.993438
8.000000 0.000000 0.995972 0.005672 0.000564 0.994399
8.200000 0.000000 0.996644 0.004951 0.000376 0.995328
8.400000 0.000000 0.997192 0.004267 0.000283 0.996088
8.600000 0.000000 0.997664 0.003641 0.000191 0.996745
8.800000 0.000000 0.998087 0.003110 0.000103 0.997334
9.000000 0.000000 0.998457 0.002592 -0.000015 0.997850
9.200000 0.000000 0.998801 0.002030 -0.000086 0.998330
9.400000 0.000000 0.999062 0.001498 -0.000134 0.998694
9.600000 0.000000 0.999247 0.001003 -0.000200 0.998952
9.800000 0.000000 0.999364 0.000503 -0.000270 0.999116
10.000000 0.200000 0.999368 0.000210 -0.000592 0.999121
10.000000 0.400000 0.999252 0.000219 -0.001085 0.998959
10.000000 0.600000 0.999078 0.000234 -0.001562 0.998717
10.000000 0.800000 0.998836 0.000293 -0.002054 0.998379
10.000000 1.000000 0.998515 0.000350 -0.002607 0.997931
10.000000 1.200000 0.998138 0.000383 -0.003156 0.997405
10.000000 1.400000 0.997722 0.000475 -0.003686 0.996826
10.000000 1.600000 0.997251 0.000590 -0.004273 0.996172
10.000000 1.800000 0.996692 0.000805 -0.004883 0.995398
10.000000 2.000000 0.996137 0.000896 -0.005460 0.994630
10.000000 2.200000 0.995527 0.001040 -0.005968 0.993788
10.000000 2.400000 0.994828 0.001371 -0.006376 0.992829
10.000000 2.600000 0.994150 0.001538 -0.006830 0.991901
10.000000 2.800000 0.993509 0.001596 -0.007091 0.991023
10.000000 3.000000 0.992938 0.001681 -0.007117 0.990247
10.000000 3.200000 0.992308 0.001764 -0.006887 0.989396
10.000000 3.400000 0.991704 0.001932 -0.006325 0.988588
10.000000 3.600000 0.991157 0.002039 -0.005738 0.987860
10.000000 3.800000 0.990580 0.001822 -0.005297 0.987078
10.000000 4.000000 0.990183 0.001662 -0.004065 0.986556
10.000000 4.200000 0.989851 0.001354 -0.003161 0.986114
10.000000 4.400000 0.989503 0.000854 -0.001972 0.985645
10.000000 4.600000 0.989166 0.000274 -0.000788 0.985190
10.000000 4.800000 0.989014 -0.000132 0.000314 0.984992
10.000000 5.000000 0.988934 -0.000381 0.001397 0.984886
10.000000 5.200000 0.988959 -0.000665 0.002773 0.984924
10.000000 5.400000 0.989062 -0.000892 0.004574 0.985058
10.000000 5.600000 0.989383 -0.001062 0.005136 0.985469
10.000000 5.800000 0.989627 -0.001281 0.006015 0.985781
10.000000 6.000000 0.989918 -0.001466 0.006721 0.986161
10.000000 6.200000 0.990278 -0.001523 0.007232 0.986641
10.000000 6.400000 0.990817 -0.001503 0.007933 0.987364
10.000000 6.600000 0.991492 -0.001450 0.007855 0.988268
10.000000 6.800000 0.992045 -0.001435 0.007878 0.989012
10.000000 7.000000 0.992681 -0.001422 0.007637 0.989878
10.000000 7.200000 0.993325 -0.001297 0.007420 0.990759
10.000000 7.400000 0.993961 -0.001011 0.007052 0.991629
10.000000 7.600000 0.994616 -0.000824 0.006615 0.992529
10.000000 7.800000 0.995243 -0.000622 0.006110 0.993392
10.000000 8.000000 0.995939 -0.000456 0.005477 0.994354
10.000000 8.200000 0.996619 -0.000295 0.004735 0.995294
10.000000 8.400000 0.997182 -0.000220 0.004038 0.996074
10.000000 8.600000 0.997667 -0.000147 0.003411 0.996748
10.000000 8.800000 0.998098 -0.000101 0.002879 0.997349
10.000000 9.000000 0.998463 -0.000027 0.002355 0.997857
10.000000 9.200000 0.998795 0.000013 0.001790 0.998321
10.000000 9.400000 0.999039 0.000046 0.001308 0.998662
10.000000 9.600000 0.999227 0.000101 0.000842 0.998924
10.000000 9.800000 0.999356 0.000155 0.000366 0.999104
9.800000 10.000000 0.999359 0.000488 0.000108 0.999109
9.600000 10.000000 0.999243 0.000994 0.000156 0.998946
9.400000 10.000000 0.999056 0.001486 0.000221 0.998685
9.200000 10.000000 0.998797 0.002009 0.000299 0.998324
9.000000 10.000000 0.998461 0.002563 0.000377 0.997856
8.800000 10.000000 0.998096 0.003071 0.000438 0.997346
8.600000 10.000000 0.997678 0.003566 0.000528 0.996764
8.400000 10.000000 0.997204 0.004127 0.000623 0.996105
8.200000 10.000000 0.996646 0.004699 0.000825 0.995330
8.000000 10.000000 0.995988 0.005314 0.001073 0.994420
7.800000 10.000000 0.995304 0.005889 0.001242 0.993474
7.600000 10.000000 0.994673 0.006302 0.001328 0.992603
7.400000 10.000000 0.994066 0.006620 0.001432 0.991768
7.200000 10.000000 0.993430 0.006832 0.001533 0.990896
7.000000 10.000000 0.992857 0.006889 0.001604 0.990114
6.800000 10.000000 0.992238 0.006698 0.001631 0.989274
6.600000 10.000000 0.991565 0.006414 0.001572 0.988361
6.400000 10.000000 0.991001 0.005617 0.001572 0.987613
6.200000 10.000000 0.990535 0.005312 0.001470 0.986989
6.000000 10.000000 0.990140 0.004524 0.001312 0.986464
5.800000 10.000000 0.989783 0.003498 0.001034 0.985992
5.600000 10.000000 0.989436 0.002424 0.000687 0.985537
5.400000 10.000000 0.989246 0.000480 0.000433 0.985314
5.200000 10.000000 0.989083 -0.000417 0.000206 0.985098
5.000000 10.000000 0.989098 -0.001452 -0.000091 0.985118
4.800000 10.000000 0.989095 -0.002872 -0.000397 0.985113
4.600000 10.000000 0.989267 -0.004106 -0.000830 0.985344
4.400000 10.000000 0.989422 -0.005176 -0.001310 0.985548
4.200000 10.000000 0.989618 -0.005950 -0.001643 0.985807
4.000000 10.000000 0.990029 -0.006930 -0.001764 0.986359
3.800000 10.000000 0.990550 -0.007300 -0.001774 0.987050
3.600000 10.000000 0.990960 -0.008054 -0.001804 0.987598
3.400000 10.000000 0.991619 -0.008233 -0.001573 0.988481
3.200000 10.000000 0.992267 -0.008112 -0.001326 0.989346
3.000000 10.000000 0.992829 -0.007919 -0.001132 0.990100
2.800000 10.000000 0.993461 -0.007704 -0.000997 0.990960
2.600000 10.000000 0.994049 -0.007424 -0.000793 0.991762
2.400000 10.000000 0.994774 -0.006962 -0.000611 0.992755
2.200000 10.000000 0.995498 -0.006284 -0.000514 0.993748
2.000000 10.000000 0.996092 -0.005639 -0.000377 0.994568
1.800000 10.000000 0.996690 -0.005064 -0.000190 0.995396
1.600000 10.000000 0.997264 -0.004378 -0.000129 0.996190
1.400000 10.000000 0.997728 -0.003748 -0.000081 0.996835
1.200000 10.000000 0.998142 -0.003205 -0.000045 0.997412
1.000000 10.000000 0.998497 -0.002673 0.000012 0.997905
0.800000 10.000000 0.998822 -0.002089 0.000026 0.998359
0.600000 10.000000 0.999074 -0.001539 0.000021 0.998710
0.400000 10.000000 0.999253 -0.001036 0.000033 0.998960
0.200000 10.000000 0.999366 -0.000532 0.000052 0.999119
0.000000 9.800000 0.999358 -0.000249 0.000348 0.999107
0.000000 9.600000 0.999229 -0.000279 0.000827 0.998926
0.000000 9.400000 0.999044 -0.000306 0.001285 0.998668
0.000000 9.200000 0.998803 -0.000366 0.001747 0.998331
0.000000 9.000000 0.998468 -0.000452 0.002285 0.997864
0.000000 8.800000 0.998091 -0.000469 0.002831 0.997339
0.000000 8.600000 0.997667 -0.000507 0.003336 0.996749
0.000000 8.400000 0.997186 -0.000568 0.003890 0.996080
0.000000 8.200000 0.996620 -0.000750 0.004463 0.995294
0.000000 8.000000 0.995956 -0.000967 0.005086 0.994377
0.000000 7.800000 0.995269 -0.001111 0.005674 0.993428
0.000000 7.600000 0.994626 -0.001209 0.006089 0.992542
0.000000 7.400000 0.994016 -0.001352 0.006379 0.991705
0.000000 7.200000 0.993350 -0.001485 0.006655 0.990792
0.000000 7.000000 0.992757 -0.001572 0.006776 0.989982
0.000000 6.800000 0.992143 -0.001571 0.006624 0.989148
0.000000 6.600000 0.991474 -0.001503 0.006411 0.988242
0.000000 6.400000 0.990902 -0.001527 0.005711 0.987485
0.000000 6.200000 0.990418 -0.001517 0.005535 0.986839
0.000000 6.000000 0.990014 -0.001433 0.004835 0.986300
0.000000 5.800000 0.989651 -0.001237 0.003856 0.985821
0.000000 5.600000 0.989301 -0.000958 0.002829 0.985361
0.000000 5.400000 0.989124 -0.000748 0.000963 0.985153
0.000000 5.200000 0.988973 -0.000555 0.000116 0.984949
0.000000 5.000000 0.988996 -0.000298 -0.000943 0.984978
0.000000 4.800000 0.989024 -0.000046 -0.002378 0.985015
0.000000 4.600000 0.989215 0.000372 -0.003607 0.985269
0.000000 4.400000 0.989390 0.000898 -0.004712 0.985497
0.000000 4.200000 0.989606 0.001326 -0.005555 0.985781
0.000000 4.000000 0.990033 0.001564 -0.006655 0.986356
0.000000 3.800000 0.990566 0.001718 -0.007146 0.987063
0.000000 3.600000 0.990986 0.001847 -0.008010 0.987623
0.000000 3.400000 0.991657 0.001754 -0.008297 0.988525
0.000000 3.200000 0.992310 0.001611 -0.008253 0.989398
0.000000 3.000000 0.992864 0.001478 -0.008091 0.990143
0.000000 2.800000 0.993491 0.001385 -0.007872 0.990998
0.000000 2.600000 0.994073 0.001194 -0.007576 0.991794
0.000000 2.400000 0.994794 0.000971 -0.007091 0.992782
0.000000 2.200000 0.995509 0.000801 -0.006409 0.993763
0.000000 2.000000 0.996097 0.000626 -0.005761 0.994573
0.000000 1.800000 0.996677 0.000401 -0.005173 0.995376
0.000000 1.600000 0.997240 0.000287 -0.004460 0.996157
0.000000 1.400000 0.997711 0.000168 -0.003803 0.996811
0.000000 1.200000 0.998131 0.000074 -0.003243 0.997396
0.000000 1.000000 0.998495 -0.000019 -0.002709 0.997903
0.000000 0.800000 0.998827 -0.000069 -0.002139 0.998367
0.000000 0.600000 0.999079 -0.000099 -0.001604 0.998717
0.000000 0.400000 0.999259 -0.000138 -0.001108 0.998969
0.000000 0.200000 0.999372 -0.000180 -0.000616 0.999127
5.000000 5.000000 0.887189 0.002388 -0.000061 0.913397
2.940722 2.920216 0.983814 0.075539 -0.077239 0.987117
7.069927 2.933321 0.983744 0.078898 0.075152 0.987259
7.071429 7.071429 0.983574 -0.073554 0.079177 0.987026
2.928571 7.071429 0.984104 -0.077184 -0.075253 0.987493
4.989590 2.222658 0.980370 0.121538 0.001152 0.983638
2.193234 5.003669 0.980621 0.000995 -0.120760 0.984062
7.803136 5.000000 0.980965 0.000216 0.118253 0.983858
5.006807 7.799705 0.980495 -0.121026 0.001056 0.983516
1.705584 8.274335 0.995082 -0.010777 -0.002225 0.993558
8.287013 8.277499 0.995036 -0.002069 0.010393 0.993506
1.708370 1.727069 0.995132 0.002785 -0.010595 0.993636
8.299442 1.725606 0.995239 0.009565 0.001739 0.993736
3.609680 4.312330 0.945898 0.099873 -0.191429 0.960088
5.723378 3.626711 0.946312 0.191975 0.104650 0.960938
6.363062 5.703280 0.945460 -0.101940 0.194785 0.960339
4.312554 6.400702 0.945803 -0.189581 -0.103528 0.959900
8.486436 3.575492 0.990521 0.016237 0.030520 0.989436
1.543733 6.400372 0.990187 -0.015615 -0.032964 0.989035
6.373166 1.560539 0.988543 0.043962 0.015235 0.986886
6.400143 8.449516 0.990201 -0.032824 0.017324 0.989128
1.538009 3.604160 0.988505 0.015016 -0.043357 0.986722
3.580387 8.438610 0.988360 -0.046258 -0.016836 0.987023
3.603771 1.542119 0.990303 0.032390 -0.015862 0.989230
8.457881 6.396229 0.988473 -0.014932 0.042780 0.986675
4.182479 3.186061 0.963815 0.178770 -0.080296 0.973593
6.811263 4.185420 0.963982 0.080361 0.180071 0.974273
5.814580 6.811263 0.962889 -0.183523 0.079269 0.973375
3.184519 5.825914 0.964480 -0.080595 -0.178391 0.974436
5.343050 1.114355 0.988131 0.032770 0.003494 0.985420
8.874387 5.349281 0.987819 -0.003944 0.033264 0.984972
5.349281 8.874387 0.988470 -0.030979 0.002558 0.986020
1.125613 5.349281 0.988362 -0.002758 -0.030803 0.986009
7.395157 8.902338 0.994022 -0.001938 0.007864 0.992100
8.901342 7.398430 0.993278 -0.003418 0.014601 0.991124
2.639742 8.913104 0.993203 -0.015364 -0.003346 0.991032
1.085431 7.398433 0.993882 -0.007369 -0.002282 0.991911
7.376715 1.100222 0.993211 0.014824 0.003653 0.991005
1.090401 2.599523 0.993377 0.003687 -0.014892 0.991226
2.611724 1.078164 0.993982 0.002309 -0.007398 0.992112
8.908863 2.610143 0.994088 0.007529 0.001555 0.992213
2.588563 3.955784 0.977709 0.056365 -0.131050 0.982439
6.013385 2.597351 0.977776 0.131490 0.054937 0.982516
3.974513 7.432394 0.977122 -0.132942 -0.054673 0.982082
7.415700 6.058604 0.977575 -0.056019 0.129374 0.982071
4.058309 5.244375 0.918265 -0.046579 -0.183764 0.938356
4.755625 4.058309 0.918411 0.183782 -0.048379 0.938675
5.941691 4.755625 0.917967 0.050211 0.184322 0.938350
5.244375 5.941691 0.917596 -0.182688 0.049245 0.937997
0.982144 8.979376 0.997742 -0.003308 0.001898 0.996868
8.980033 1.005597 0.997705 0.003198 -0.001998 0.996822
9.021911 9.019292 0.997792 0.001960 0.003093 0.996938
0.980708 0.978089 0.997880 -0.001816 -0.003097 0.997061
4.390055 9.028520 0.988538 -0.028342 -0.004249 0.985602
0.971480 4.390055 0.988522 0.003644 -0.027539 0.985543
9.028520 4.390055 0.989220 0.003386 0.020760 0.986309
4.390055 0.971480 0.989171 0.020874 -0.003446 0.986375
7.395155 7.961636 0.991950 -0.023631 0.025871 0.991300
2.604845 7.961636 0.991111 -0.034523 -0.021377 0.990287
7.386550 2.029987 0.991138 0.033011 0.019600 0.990072
2.029987 2.613450 0.991207 0.020092 -0.033494 0.990194
7.994465 7.205720 0.990472 -0.022091 0.037714 0.989594
2.005535 7.205720 0.991528 -0.027708 -0.029277 0.991049
8.001523 2.788091 0.991467 0.027465 0.027725 0.990965
2.779345 2.010348 0.991441 0.029102 -0.027566 0.991062
6.266082 7.564583 0.982864 -0.100409 0.051728 0.986659
2.426863 6.259901 0.982895 -0.048901 -0.098773 0.986265
3.685180 2.439402 0.983301 0.095735 -0.052021 0.986725
7.546262 3.729703 0.983282 0.050348 0.099418 0.987055
5.022469 3.058854 0.960808 0.205396 0.003058 0.971511
3.019209 5.001760 0.962483 0.001256 -0.200185 0.972724
6.935430 5.017411 0.960457 -0.000633 0.207590 0.971769
4.962175 6.935690 0.960221 -0.206200 -0.005712 0.971139
0.832281 8.181086 0.996240 -0.003871 0.002727 0.994837
8.164980 9.162188 0.996226 0.003054 0.003832 0.994817
8.181086 0.832281 0.996070 0.006728 -0.000309 0.994601
0.837844 1.835102 0.996130 -0.000071 -0.007128 0.994688
9.167719 8.181086 0.995960 0.000465 0.006886 0.994459
1.818914 9.167719 0.996152 -0.007009 0.000570 0.994708
1.818914 0.832281 0.996299 -0.002658 -0.003771 0.994932
9.167719 1.818914 0.996240 0.003828 -0.002965 0.994850
3.463676 3.544713 0.966369 0.132380 -0.136793 0.976204
6.451599 3.476202 0.966408 0.136866 0.132076 0.976177
6.541885 6.463657 0.966938 -0.129477 0.138373 0.976473
3.536343 6.541885 0.966810 -0.132972 -0.133246 0.976179
6.082425 9.199252 0.990383 -0.009194 0.004402 0.987415
6.086556 0.792692 0.989683 0.019005 0.003589 0.986330
9.199904 6.085104 0.989443 -0.003963 0.019983 0.986050
0.800096 6.085104 0.990278 -0.003924 -0.008831 0.987295
0.794928 3.342076 0.991278 0.003852 -0.017323 0.988399
3.345178 0.791766 0.992048 0.003476 -0.005320 0.989470
9.208234 3.345178 0.992117 0.005873 0.003281 0.989577
3.347158 9.244216 0.991196 -0.016607 -0.003470 0.988295
1.752570 4.356715 0.985320 0.013705 -0.071596 0.985036
4.356715 8.247430 0.985366 -0.073200 -0.014580 0.985176
4.356715 1.752570 0.986741 0.066756 -0.013395 0.987018
8.245118 4.347028 0.987634 0.013162 0.064342 0.987834
1.986097 5.728875 0.984664 -0.020282 -0.085260 0.986382
5.732996 8.081034 0.986388 -0.076391 0.019936 0.987587
5.677314 1.825135 0.984904 0.077933 0.016880 0.985018
8.192773 5.647287 0.985143 -0.015632 0.074300 0.984917
3.344457 7.749750 0.985535 -0.074484 -0.041429 0.986664
6.667520 2.202512 0.986154 0.069801 0.038528 0.986819
2.212070 3.332127 0.985978 0.038641 -0.070103 0.986562
4.277109 4.585078 0.913067 0.084795 -0.151711 0.935088
5.414922 4.277109 0.912865 0.152726 0.083680 0.935147
5.722891 5.414922 0.912238 -0.081797 0.152915 0.934648
4.585078 5.722891 0.912848 -0.149379 -0.084089 0.935067
6.777775 0.711876 0.991502 0.014701 0.002909 0.988523
9.302383 6.793667 0.991561 -0.003012 0.014484 0.988617
0.714571 6.796938 0.992432 -0.004420 -0.000665 0.989810
6.789939 9.289557 0.992486 -0.000341 0.004596 0.989870
7.506513 4.384500 0.978663 0.030578 0.133588 0.983389
4.364981 2.484274 0.978479 0.133653 -0.032565 0.983273
6.124735 4.076293 0.943937 0.138410 0.168431 0.959101
5.893394 6.168403 0.943561 -0.173715 0.134089 0.958544
4.083768 3.849609 0.945668 0.172034 -0.132581 0.960376
3.881000 5.925573 0.943719 -0.137503 -0.166926 0.958582
2.576605 5.548775 0.976505 -0.033518 -0.149939 0.983201
5.548775 7.423395 0.976703 -0.149274 0.034363 0.982929
7.835482 6.563091 0.986139 -0.035787 0.071604 0.986923
4.949677 9.346282 0.988909 -0.015110 -0.000896 0.985380
4.949677 0.653718 0.988799 0.014106 0.000152 0.985190
0.653718 4.949677 0.988774 0.000361 -0.014588 0.985228
9.352500 4.948916 0.988749 -0.000443 0.014533 0.985093
6.788684 7.940525 0.989352 -0.045907 0.032684 0.989599
4.954335 8.391499 0.986148 -0.066888 -0.000749 0.985799
1.603078 4.951324 0.986126 0.001322 -0.065605 0.985816
4.950523 1.597518 0.986194 0.065132 0.000518 0.985661
8.413216 4.946289 0.986286 -0.000602 0.060452 0.985150
7.006639 1.566909 0.990980 0.030437 0.012785 0.989194
1.573411 2.989054 0.991106 0.013220 -0.030616 0.989375
2.966602 8.414829 0.991011 -0.032525 -0.013887 0.989472
1.611194 7.676484 0.994019 -0.013543 -0.007642 0.992534
8.388618 7.702039 0.993418 -0.006871 0.017723 0.991727
2.318491 1.590831 0.994082 0.007399 -0.012707 0.992624
8.388618 2.297961 0.994173 0.013182 0.006926 0.992771
0.613041 3.911757 0.989833 0.002731 -0.016096 0.986412
3.908297 9.379108 0.989801 -0.016479 -0.003232 0.986407
9.402418 3.916470 0.990451 0.003373 0.004908 0.987224
3.913083 0.595392 0.990577 0.003857 -0.002881 0.987378
5.454737 2.598152 0.974198 0.154729 0.030627 0.979673
2.609916 4.561020 0.973933 0.030577 -0.157471 0.979572
7.395772 5.446024 0.974070 -0.029172 0.157169 0.979751
4.380613 6.985827 0.965080 -0.186216 -0.056403 0.974475
9.419976 9.409597 0.998777 0.001310 0.001553 0.998297
0.588320 9.411680 0.998759 -0.001716 0.001254 0.998272
0.588320 0.588320 0.998804 -0.001339 -0.001692 0.998336
9.411680 0.588320 0.998764 0.001582 -0.001415 0.998280
9.420990 5.547385 0.988907 -0.002426 0.015446 0.985200
5.548259 0.603021 0.988983 0.015212 0.002148 0.985321
0.575632 5.542564 0.989308 -0.001483 -0.007953 0.985758
5.542564 9.424368 0.989474 -0.008394 0.001366 0.985955
0.578352 7.663371 0.994920 -0.003135 0.003665 0.993005
0.601287 2.343094 0.994720 0.000827 -0.009235 0.992760
7.659823 0.598707 0.994626 0.008685 0.000656 0.992612
2.345500 0.605869 0.995002 -0.003729 -0.003021 0.993141
9.421640 7.663382 0.994654 -0.000469 0.008370 0.992643
7.659711 9.422696 0.994954 0.003978 0.003245 0.993050
2.342422 9.432462 0.994704 -0.008836 -0.000283 0.992720
9.417988 2.337141 0.995069 0.003213 -0.004022 0.993230
7.710894 1.562782 0.993638 0.016206 0.006149 0.991897
2.273789 8.437116 0.993653 -0.017694 -0.006408 0.992007
7.724230 8.438471 0.994170 -0.005579 0.012432 0.992646
1.562782 2.289106 0.993712 0.006592 -0.016834 0.992011
6.969839 8.514170 0.992077 -0.015555 0.014718 0.990409
8.519072 3.024369 0.992246 0.015303 0.016239 0.990818
8.505786 6.967655 0.990840 -0.012140 0.029303 0.988946
1.475297 6.966478 0.992028 -0.014456 -0.016975 0.990461
3.038824 1.486495 0.992333 0.017324 -0.015049 0.991004
3.499450 7.113092 0.978195 -0.117234 -0.082717 0.983401
6.506635 2.893892 0.977681 0.116241 0.082140 0.982768
7.106108 6.506635 0.977762 -0.083276 0.118223 0.983147
3.123327 3.988997 0.967047 0.090975 -0.165971 0.975694
3.650501 3.004195 0.976006 0.128629 -0.087610 0.982484
6.995805 3.650501 0.976164 0.086651 0.127088 0.982610
6.508220 7.027643 0.977108 -0.119565 0.091238 0.983541
2.971550 6.507206 0.977535 -0.087761 -0.119581 0.983610
1.361038 5.861407 0.988923 -0.009064 -0.034852 0.987368
5.858422 8.622577 0.989128 -0.035562 0.010142 0.987550
6.009468 3.122928 0.966726 0.165787 0.090316 0.975591
2.892236 3.492793 0.977881 0.083130 -0.117225 0.983092
6.876653 5.996596 0.966792 -0.088945 0.168250 0.975768
0.554409 8.665248 0.997609 -0.002101 0.002885 0.996678
9.445591 1.334752 0.997630 0.001890 -0.003146 0.996709
8.657701 0.548021 0.997560 0.003887 -0.000855 0.996610
8.662141 9.427069 0.997627 0.003020 0.002076 0.996705
0.572931 1.337859 0.997637 -0.000825 -0.004136 0.996721
1.317810 0.559097 0.997743 -0.002901 -0.001911 0.996866
9.440903 8.682190 0.997610 0.001034 0.003766 0.996679
1.333268 9.448243 0.997655 -0.004092 0.000939 0.996742
3.609008 4.879304 0.940347 0.020374 -0.215067 0.956079
5.113113 3.596009 0.939952 0.215471 0.022272 0.956158
6.403991 5.113113 0.939363 -0.020952 0.216950 0.955846
4.886887 6.403991 0.939626 -0.216735 -0.018262 0.955896
2.033337 3.881986 0.984813 0.028611 -0.080843 0.985452
4.496082 7.539687 0.976439 -0.143831 -0.027865 0.981051
3.875018 7.976184 0.984232 -0.083769 -0.029997 0.985174
5.878627 1.271920 0.988208 0.037794 0.009151 0.985756
8.682901 5.892480 0.988140 -0.009347 0.039721 0.985810
2.562060 2.481019 0.989826 0.036658 -0.041878 0.989918
2.503162 7.433752 0.989685 -0.044589 -0.038791 0.990138
7.494277 2.573080 0.989483 0.042857 0.036344 0.989576
7.496118 7.428934 0.989791 -0.035562 0.043115 0.990082
2.429604 6.861623 0.987024 -0.049652 -0.064682 0.988674
8.013200 3.331189 0.989152 0.031481 0.048150 0.989618
3.343625 2.028147 0.988850 0.051825 -0.032252 0.989472
6.151421 2.027401 0.984954 0.080481 0.030219 0.985651
2.905721 9.494866 0.992782 -0.011308 -0.001265 0.990138
2.872163 0.529272 0.993445 -0.003166 -0.003222 0.991049
9.470728 2.872163 0.993443 0.003437 -0.003487 0.991045
0.505134 2.905721 0.992787 0.001724 -0.011432 0.990124
1.239513 8.520468 0.996544 -0.005411 0.001525 0.995275
1.239513 1.479532 0.996537 -0.000676 -0.006047 0.995279
8.539782 1.263805 0.996466 0.005861 -0.001024 0.995179
8.529481 8.755385 0.996525 0.001749 0.005258 0.995252
4.597010 3.539246 0.945900 0.210051 -0.059236 0.960578
3.542377 5.399796 0.945504 -0.057652 -0.210244 0.960281
6.464844 4.607919 0.944926 0.059982 0.212437 0.959807
5.399796 6.457623 0.945334 -0.210346 0.059716 0.960610
2.097333 7.910378 0.993191 -0.021253 -0.012746 0.991958
7.912330 2.079566 0.993324 0.019881 0.011940 0.992068
2.089622 2.097333 0.993372 0.012747 -0.020370 0.992152
7.876455 7.906845 0.992957 -0.012891 0.021195 0.991711
1.113913 3.893214 0.988956 0.007158 -0.030699 0.986248
3.893214 8.886087 0.988813 -0.031965 -0.007938 0.986203
8.866770 3.891927 0.990446 0.008471 0.019960 0.988233
3.893214 1.113913 0.990324 0.019113 -0.007281 0.988024
3.894803 1.986444 0.986810 0.071258 -0.027779 0.988022
8.013556 3.894803 0.986944 0.026576 0.070006 0.988068
4.521382 5.184849 0.900564 -0.040405 -0.115547 0.925462
4.815151 4.521382 0.900678 0.116753 -0.043111 0.925594
5.478618 4.815151 0.900291 0.044909 0.115611 0.925324
5.184849 5.478618 0.900031 -0.113262 0.043373 0.925102
1.945153 6.698260 0.989403 -0.028291 -0.045571 0.989380
3.076852 2.447822 0.987724 0.060734 -0.050183 0.989484
7.552178 3.076852 0.987733 0.051753 0.060085 0.989608
9.508904 4.468856 0.989468 0.001144 0.006731 0.985819
4.468856 0.491096 0.989511 0.006119 -0.001397 0.985905
0.508374 4.481242 0.989022 0.001368 -0.012868 0.985306
4.481242 9.491626 0.989049 -0.013333 -0.001992 0.985343
6.805331 7.473325 0.985970 -0.071730 0.056499 0.988520
3.135002 4.528953 0.960555 0.050321 -0.198032 0.970591
5.523777 3.127075 0.960878 0.195537 0.057832 0.971058
6.885019 5.522359 0.961013 -0.055505 0.196689 0.971363
3.913694 6.853052 0.967400 -0.160648 -0.096044 0.975916
7.938678 6.125709 0.984182 -0.030901 0.082679 0.984849
8.707310 1.966045 0.995418 0.007090 -0.000118 0.993897
1.961032 1.296416 0.995524 0.000505 -0.007161 0.994054
8.707310 8.033955 0.995074 -0.001170 0.010002 0.993430
1.314838 8.017406 0.995301 -0.007955 -0.000657 0.993754
8.917938 4.819150 0.988507 0.000513 0.029111 0.985751
4.823748 1.081129 0.988546 0.028792 -0.000813 0.985892
1.115859 4.841229 0.987987 0.001517 -0.033539 0.985476
4.823748 8.918871 0.987984 -0.032326 -0.001911 0.985262
6.706978 1.172780 0.990737 0.023567 0.007049 0.988115
1.071692 6.477770 0.991293 -0.007584 -0.012075 0.988923
6.477770 8.928308 0.991391 -0.011486 0.008044 0.989034
8.923406 6.478428 0.989894 -0.007312 0.025267 0.987059
7.540906 6.955202 0.986039 -0.046595 0.065754 0.986995
1.996511 6.217602 0.987218 -0.028537 -0.067619 0.988259
6.200645 8.046683 0.987276 -0.063012 0.028751 0.987994
7.184496 0.453091 0.993074 0.009997 0.001362 0.990469
7.188547 9.517184 0.993494 0.003881 0.003143 0.991066
0.484057 7.185697 0.993431 -0.003074 0.003557 0.990991
9.509179 7.179752 0.992934 -0.001418 0.010339 0.990309
2.243142 4.329689 0.980605 0.028584 -0.115502 0.983275
1.563551 5.392155 0.987016 -0.006034 -0.057026 0.986414
5.380570 8.433042 0.986859 -0.058072 0.006255 0.986056
1.899322 8.710877 0.995353 -0.009613 -0.000752 0.993755
5.985668 7.197892 0.974983 -0.146995 0.066587 0.982201
2.793541 6.005944 0.974672 -0.066425 -0.145275 0.981359
4.557572 2.947922 0.966601 0.186478 -0.039522 0.975916
7.050742 4.566475 0.966085 0.041044 0.188505 0.975589
0.462107 6.400232 0.990973 -0.002452 0.000674 0.987728
6.396386 0.455751 0.990669 0.012431 0.002007 0.987277
6.396324 9.543302 0.991100 0.000742 0.002708 0.987888
9.551437 6.395914 0.990573 -0.002359 0.012636 0.987165
8.042193 8.749542 0.995432 0.000506 0.007074 0.993893
1.269967 1.930090 0.995321 0.001458 -0.009799 0.993733
8.069910 1.269967 0.995253 0.009327 0.001026 0.993638
2.447242 2.984972 0.987174 0.046443 -0.062610 0.988267
7.051707 2.477988 0.987333 0.061160 0.045927 0.988408
2.972482 7.549480 0.986969 -0.065631 -0.047258 0.988427
8.942736 8.563000 0.996800 0.001416 0.005284 0.995603
8.942736 1.437000 0.996903 0.003996 -0.002275 0.995745
1.456189 8.887251 0.996722 -0.005765 0.001133 0.995497
1.437000 1.057264 0.996979 -0.002013 -0.004109 0.995853
3.279908 8.783152 0.990597 -0.027092 -0.008622 0.988298
1.239216 3.282103 0.990567 0.008648 -0.026667 0.988136
5.719832 2.266628 0.980146 0.117476 0.031170 0.983093
4.900649 2.585013 0.974042 0.158654 -0.005899 0.979928
7.403891 4.896662 0.974076 0.006394 0.161353 0.980327
5.415863 7.001904 0.966134 -0.189682 0.040311 0.975717
3.007705 5.412278 0.965546 -0.037848 -0.190095 0.975681
2.622447 5.089938 0.973677 -0.002824 -0.164592 0.980603
5.117097 7.377813 0.974151 -0.162863 0.009717 0.980296
4.023465 2.769108 0.975310 0.142226 -0.061171 0.981521
7.281951 3.981374 0.977355 0.058994 0.134443 0.983284
7.885313 4.588281 0.982941 0.012544 0.102749 0.985021
4.571764 2.129052 0.982600 0.103604 -0.014774 0.984927
7.802836 5.717839 0.981488 -0.027433 0.108587 0.983738
5.862943 7.713344 0.982216 -0.107758 0.035920 0.985634
2.328140 5.899583 0.982229 -0.036927 -0.108451 0.985911
6.296888 6.103494 0.952446 -0.141380 0.162636 0.965616
3.486552 6.110734 0.960505 -0.117467 -0.165736 0.971608
3.651768 3.869601 0.954957 0.137597 -0.158699 0.967243
3.847435 6.353301 0.955087 -0.155886 -0.138672 0.966715
3.863065 3.525349 0.959743 0.164628 -0.122443 0.971176
6.133638 3.683832 0.954548 0.160323 0.139813 0.967460
6.527745 3.885357 0.960655 0.118345 0.167124 0.972133
6.140262 6.503135 0.960455 -0.161849 0.124851 0.971632
9.560763 8.070237 0.996032 0.000181 0.005936 0.994498
1.945928 9.583950 0.996067 -0.006447 0.000240 0.994551
0.423197 1.941888 0.996110 0.000044 -0.006446 0.994608
8.058112 0.423197 0.996037 0.006067 -0.000047 0.994503
0.423197 8.058112 0.996139 -0.001988 0.004156 0.994642
8.056396 9.581679 0.996172 0.004431 0.002044 0.994687
1.929763 0.439237 0.996290 -0.004254 -0.001867 0.994861
9.560763 1.929763 0.996253 0.002020 -0.004471 0.994811
3.536225 9.583636 0.990905 -0.012521 -0.002323 0.987661
0.416364 3.536225 0.990923 0.002247 -0.012550 0.987661
3.514136 0.428019 0.991508 -0.001374 -0.002890 0.988468
9.571981 3.514136 0.991553 0.003326 -0.001433 0.988521
5.358107 1.549559 0.986599 0.059892 0.007536 0.985605
8.426129 5.349019 0.986178 -0.007471 0.060565 0.985111
2.201879 8.999626 0.994835 -0.010369 -0.000904 0.993020
8.792975 3.362698 0.991727 0.010968 0.014024 0.989829
3.328600 1.215652 0.991859 0.014034 -0.010296 0.989949
4.534751 8.673828 0.987522 -0.046189 -0.006042 0.985611
1.368339 4.521314 0.987330 0.006179 -0.046586 0.985469
4.558822 1.340132 0.988247 0.040528 -0.004555 0.986531
8.625241 4.504819 0.988228 0.005778 0.041099 0.986411
9.588020 5.930370 0.989480 -0.001975 0.012364 0.985710
5.922865 9.574126 0.990158 -0.002186 0.001866 0.986684
5.930370 0.411980 0.989575 0.011935 0.001714 0.985831
0.425874 5.922865 0.990097 -0.001884 -0.002011 0.986624
8.520577 3.999901 0.989515 0.012372 0.037611 0.988296
1.484976 3.986636 0.987696 0.012517 -0.048350 0.986024
3.975842 1.493756 0.989044 0.039326 -0.013248 0.987879