TITLE = "Example: 2D Finite Element Data"
VARIABLES = "X", "Y", "rho", "u", "v", "p"
ZONE NODES=3423, ELEMENTS = 6644, DATAPACKING = POINT, ZONETYPE = FEQUADRILATERAL, SOLUTIONTIME=5.918033e+00
0.000000 0.000000 0.978583 0.000126 0.000291 0.970148
10.000000 0.000000 0.978583 -0.000267 0.000289 0.970148
10.000000 10.000000 0.978604 -0.000272 -0.000095 0.970176
0.000000 10.000000 0.978603 0.000121 -0.000095 0.970175
0.200000 0.000000 0.978728 0.000511 0.000326 0.970349
0.400000 0.000000 0.979084 0.001088 0.000294 0.970843
0.600000 0.000000 0.979612 0.001620 0.000233 0.971576
0.800000 0.000000 0.980315 0.002132 0.000219 0.972553
1.000000 0.000000 0.981224 0.002684 0.000164 0.973815
1.200000 0.000000 0.982208 0.003119 0.000090 0.975182
1.400000 0.000000 0.983227 0.003501 0.000005 0.976600
1.600000 0.000000 0.984331 0.003865 -0.000132 0.978135
1.800000 0.000000 0.985596 0.004123 -0.000190 0.979898
2.000000 0.000000 0.986715 0.004341 -0.000278 0.981456
2.200000 0.000000 0.987767 0.004546 -0.000448 0.982923
2.400000 0.000000 0.988958 0.004587 -0.000519 0.984585
2.600000 0.000000 0.989970 0.004560 -0.000542 0.985999
2.800000 0.000000 0.990751 0.004454 -0.000658 0.987091
3.000000 0.000000 0.991462 0.004350 -0.000731 0.988086
3.200000 0.000000 0.992055 0.004199 -0.000897 0.988920
3.400000 0.000000 0.992639 0.003985 -0.001092 0.989743
3.600000 0.000000 0.993162 0.003611 -0.001189 0.990483
3.800000 0.000000 0.993499 0.003125 -0.001072 0.990958
4.000000 0.000000 0.993796 0.002925 -0.001227 0.991381
4.200000 0.000000 0.994025 0.002443 -0.001152 0.991707
4.400000 0.000000 0.994105 0.002100 -0.001071 0.991824
4.600000 0.000000 0.994201 0.001634 -0.000850 0.991961
4.800000 0.000000 0.994325 0.001154 -0.000637 0.992139
5.000000 0.000000 0.994349 0.000604 -0.000445 0.992173
5.200000 0.000000 0.994375 0.000277 -0.000323 0.992209
5.400000 0.000000 0.994308 -0.000040 -0.000379 0.992113
5.600000 0.000000 0.994254 -0.000928 -0.000140 0.992025
5.800000 0.000000 0.994024 -0.001390 0.000019 0.991695
6.000000 0.000000 0.993768 -0.001884 0.000171 0.991331
6.200000 0.000000 0.993499 -0.002302 0.000277 0.990950
6.400000 0.000000 0.993142 -0.002607 0.000216 0.990447
6.600000 0.000000 0.992672 -0.003233 0.000329 0.989782
6.800000 0.000000 0.992073 -0.003644 0.000376 0.988941
7.000000 0.000000 0.991468 -0.004022 0.000512 0.988093
7.200000 0.000000 0.990763 -0.004268 0.000534 0.987104
7.400000 0.000000 0.989908 -0.004446 0.000516 0.985910
7.600000 0.000000 0.989014 -0.004516 0.000497 0.984662
7.800000 0.000000 0.988042 -0.004536 0.000534 0.983305
8.000000 0.000000 0.986888 -0.004372 0.000458 0.981697
8.200000 0.000000 0.985594 -0.004151 0.000347 0.979893
8.400000 0.000000 0.984323 -0.003941 0.000255 0.978125
8.600000 0.000000 0.983227 -0.003596 0.000274 0.976599
8.800000 0.000000 0.982220 -0.003231 0.000267 0.975199
9.000000 0.000000 0.981252 -0.002815 0.000272 0.973854
9.200000 0.000000 0.980341 -0.002298 0.000263 0.972589
9.400000 0.000000 0.979601 -0.001758 0.000231 0.971561
9.600000 0.000000 0.979068 -0.001217 0.000269 0.970821
9.800000 0.000000 0.978724 -0.000649 0.000313 0.970343
10.000000 0.200000 0.978701 -0.000288 0.000659 0.970312
10.000000 0.400000 0.979013 -0.000234 0.001213 0.970744
10.000000 0.600000 0.979499 -0.000156 0.001714 0.971419
10.000000 0.800000 0.980162 -0.000116 0.002180 0.972340
10.000000 1.000000 0.981010 0.000004 0.002662 0.973518
10.000000 1.200000 0.981971 0.000120 0.003095 0.974854
10.000000 1.400000 0.982992 0.000200 0.003433 0.976273
10.000000 1.600000 0.984094 0.000332 0.003769 0.977806
10.000000 1.800000 0.985376 0.000396 0.003994 0.979591
10.000000 2.000000 0.986516 0.000509 0.004188 0.981178
10.000000 2.200000 0.987596 0.000708 0.004365 0.982685
10.000000 2.400000 0.988830 0.000808 0.004361 0.984407
10.000000 2.600000 0.989883 0.000851 0.004295 0.985878
10.000000 2.800000 0.990697 0.000962 0.004154 0.987016
10.000000 3.000000 0.991440 0.001018 0.004018 0.988057
10.000000 3.200000 0.992062 0.001165 0.003862 0.988930
10.000000 3.400000 0.992668 0.001323 0.003687 0.989783
10.000000 3.600000 0.993214 0.001336 0.003398 0.990553
10.000000 3.800000 0.993563 0.001115 0.003002 0.991047
10.000000 4.000000 0.993863 0.001185 0.002935 0.991473
10.000000 4.200000 0.994089 0.000960 0.002580 0.991795
10.000000 4.400000 0.994148 0.000766 0.002325 0.991881
10.000000 4.600000 0.994224 0.000450 0.001908 0.991992
10.000000 4.800000 0.994331 0.000184 0.001426 0.992145
10.000000 5.000000 0.994354 0.000027 0.000942 0.992179
10.000000 5.200000 0.994361 -0.000022 0.000671 0.992190
10.000000 5.400000 0.994260 0.000079 0.000308 0.992046
10.000000 5.600000 0.994174 -0.000120 -0.000573 0.991915
10.000000 5.800000 0.993951 -0.000203 -0.001053 0.991596
10.000000 6.000000 0.993694 -0.000286 -0.001586 0.991231
10.000000 6.200000 0.993425 -0.000326 -0.002073 0.990850
10.000000 6.400000 0.993071 -0.000209 -0.002467 0.990349
10.000000 6.600000 0.992594 -0.000274 -0.003181 0.989675
10.000000 6.800000 0.992003 -0.000331 -0.003664 0.988844
10.000000 7.000000 0.991406 -0.000407 -0.004062 0.988006
10.000000 7.200000 0.990690 -0.000339 -0.004284 0.987005
10.000000 7.400000 0.989847 -0.000309 -0.004465 0.985826
10.000000 7.600000 0.988954 -0.000288 -0.004575 0.984578
10.000000 7.800000 0.987976 -0.000323 -0.004600 0.983213
10.000000 8.000000 0.986827 -0.000251 -0.004440 0.981612
10.000000 8.200000 0.985554 -0.000164 -0.004194 0.979838
10.000000 8.400000 0.984307 -0.000095 -0.003931 0.978102
10.000000 8.600000 0.983216 -0.000127 -0.003542 0.976584
10.000000 8.800000 0.982208 -0.000119 -0.003129 0.975183
10.000000 9.000000 0.981241 -0.000125 -0.002669 0.973839
10.000000 9.200000 0.980355 -0.000163 -0.002109 0.972608
10.000000 9.400000 0.979667 -0.000185 -0.001594 0.971652
10.000000 9.600000 0.979134 -0.000255 -0.001050 0.970912
10.000000 9.800000 0.978764 -0.000302 -0.000473 0.970399
9.800000 10.000000 0.978747 -0.000656 -0.000140 0.970376
9.600000 10.000000 0.979090 -0.001222 -0.000131 0.970852
9.400000 10.000000 0.979630 -0.001761 -0.000100 0.971602
9.200000 10.000000 0.980368 -0.002296 -0.000058 0.972626
9.000000 10.000000 0.981270 -0.002814 0.000031 0.973879
8.800000 10.000000 0.982233 -0.003229 0.000152 0.975218
8.600000 10.000000 0.983241 -0.003597 0.000286 0.976619
8.400000 10.000000 0.984341 -0.003964 0.000469 0.978150
8.200000 10.000000 0.985597 -0.004222 0.000561 0.979898
8.000000 10.000000 0.986881 -0.004486 0.000640 0.981687
7.800000 10.000000 0.988030 -0.004674 0.000699 0.983288
7.600000 10.000000 0.988992 -0.004693 0.000840 0.984631
7.400000 10.000000 0.989894 -0.004674 0.000921 0.985890
7.200000 10.000000 0.990731 -0.004552 0.001017 0.987060
7.000000 10.000000 0.991468 -0.004394 0.001018 0.988092
6.800000 10.000000 0.992072 -0.004218 0.001050 0.988938
6.600000 10.000000 0.992600 -0.003909 0.001014 0.989681
6.400000 10.000000 0.993099 -0.003652 0.001080 0.990386
6.200000 10.000000 0.993512 -0.003110 0.000893 0.990968
6.000000 10.000000 0.993762 -0.002799 0.000840 0.991324
5.800000 10.000000 0.993980 -0.002454 0.000701 0.991635
5.600000 10.000000 0.994154 -0.002084 0.000516 0.991887
5.400000 10.000000 0.994289 -0.001912 0.000570 0.992088
5.200000 10.000000 0.994363 -0.001091 0.000338 0.992194
5.000000 10.000000 0.994392 -0.000645 0.000228 0.992234
4.800000 10.000000 0.994317 -0.000291 0.000150 0.992129
4.600000 10.000000 0.994248 0.000177 -0.000038 0.992030
4.400000 10.000000 0.994083 0.000715 -0.000257 0.991796
4.200000 10.000000 0.993948 0.001260 -0.000442 0.991603
4.000000 10.000000 0.993783 0.001650 -0.000412 0.991368
3.800000 10.000000 0.993535 0.002237 -0.000533 0.991012
3.600000 10.000000 0.993125 0.002567 -0.000419 0.990434
3.400000 10.000000 0.992671 0.003098 -0.000248 0.989790
3.200000 10.000000 0.992095 0.003607 -0.000205 0.988977
3.000000 10.000000 0.991460 0.003943 -0.000220 0.988085
2.800000 10.000000 0.990775 0.004141 -0.000192 0.987125
2.600000 10.000000 0.989967 0.004286 -0.000180 0.985994
2.400000 10.000000 0.988963 0.004324 -0.000047 0.984592
2.200000 10.000000 0.987794 0.004388 0.000033 0.982960
2.000000 10.000000 0.986730 0.004258 -0.000046 0.981477
1.800000 10.000000 0.985601 0.004046 -0.000006 0.979904
1.600000 10.000000 0.984325 0.003825 0.000045 0.978128
1.400000 10.000000 0.983227 0.003482 -0.000009 0.976599
1.200000 10.000000 0.982221 0.003120 -0.000041 0.975201
1.000000 10.000000 0.981260 0.002703 -0.000088 0.973865
0.800000 10.000000 0.980359 0.002183 -0.000109 0.972614
0.600000 10.000000 0.979627 0.001634 -0.000097 0.971596
0.400000 10.000000 0.979094 0.001083 -0.000124 0.970856
0.200000 10.000000 0.978747 0.000506 -0.000139 0.970376
0.000000 9.800000 0.978762 0.000165 -0.000479 0.970396
0.000000 9.600000 0.979133 0.000160 -0.001060 0.970911
0.000000 9.400000 0.979662 0.000127 -0.001599 0.971646
0.000000 9.200000 0.980346 0.000129 -0.002105 0.972595
0.000000 9.000000 0.981227 0.000091 -0.002661 0.973819
0.000000 8.800000 0.982209 -0.000030 -0.003160 0.975185
0.000000 8.600000 0.983233 -0.000147 -0.003582 0.976608
0.000000 8.400000 0.984321 -0.000313 -0.003987 0.978121
0.000000 8.200000 0.985556 -0.000377 -0.004288 0.979841
0.000000 8.000000 0.986830 -0.000420 -0.004568 0.981615
0.000000 7.800000 0.987971 -0.000459 -0.004747 0.983207
0.000000 7.600000 0.988940 -0.000602 -0.004761 0.984558
0.000000 7.400000 0.989842 -0.000714 -0.004713 0.985819
0.000000 7.200000 0.990674 -0.000852 -0.004584 0.986982
0.000000 7.000000 0.991409 -0.000855 -0.004420 0.988010
0.000000 6.800000 0.992000 -0.000904 -0.004212 0.988840
0.000000 6.600000 0.992530 -0.000891 -0.003839 0.989585
0.000000 6.400000 0.993035 -0.000985 -0.003500 0.990299
0.000000 6.200000 0.993442 -0.000888 -0.002872 0.990874
0.000000 6.000000 0.993696 -0.000914 -0.002496 0.991235
0.000000 5.800000 0.993918 -0.000861 -0.002111 0.991551
0.000000 5.600000 0.994097 -0.000757 -0.001709 0.991809
0.000000 5.400000 0.994251 -0.000865 -0.001506 0.992036
0.000000 5.200000 0.994341 -0.000689 -0.000707 0.992164
0.000000 5.000000 0.994375 -0.000646 -0.000305 0.992210
0.000000 4.800000 0.994325 -0.000613 0.000003 0.992140
0.000000 4.600000 0.994279 -0.000409 0.000419 0.992072
0.000000 4.400000 0.994131 -0.000126 0.000880 0.991861
0.000000 4.200000 0.994007 0.000162 0.001330 0.991683
0.000000 4.000000 0.993849 0.000248 0.001588 0.991457
0.000000 3.800000 0.993600 0.000509 0.002060 0.991099
0.000000 3.600000 0.993178 0.000478 0.002296 0.990504
0.000000 3.400000 0.992709 0.000411 0.002762 0.989842
0.000000 3.200000 0.992108 0.000448 0.003249 0.988994
0.000000 3.000000 0.991440 0.000505 0.003598 0.988056
0.000000 2.800000 0.990723 0.000504 0.003830 0.987052
0.000000 2.600000 0.989879 0.000502 0.004014 0.985872
0.000000 2.400000 0.988836 0.000351 0.004095 0.984415
0.000000 2.200000 0.987615 0.000225 0.004217 0.982711
0.000000 2.000000 0.986527 0.000267 0.004114 0.981194
0.000000 1.800000 0.985387 0.000206 0.003938 0.979606
0.000000 1.600000 0.984103 0.000141 0.003747 0.977819
0.000000 1.400000 0.983007 0.000204 0.003431 0.976294
0.000000 1.200000 0.982012 0.000229 0.003098 0.974911
0.000000 1.000000 0.981073 0.000241 0.002718 0.973606
0.000000 0.800000 0.980203 0.000218 0.002246 0.972397
0.000000 0.600000 0.979508 0.000173 0.001744 0.971432
0.000000 0.400000 0.979015 0.000176 0.001223 0.970748
0.000000 0.200000 0.978705 0.000175 0.000665 0.970317
5.000000 5.000000 0.854391 0.002175 -0.000714 0.880075
2.940722 2.920216 0.989784 0.076000 -0.073810 0.992794
7.069927 2.933321 0.989964 0.075642 0.075652 0.993221
7.071429 7.071429 0.989563 -0.074035 0.075480 0.992671
2.928571 7.071429 0.990126 -0.073049 -0.075191 0.993220
4.989590 2.222658 0.988612 0.124828 -0.003883 0.992564
2.193234 5.003669 0.988730 -0.004332 -0.123542 0.992773
7.803136 5.000000 0.988892 0.005225 0.120049 0.992333
5.006807 7.799705 0.988345 -0.123570 0.005641 0.991798
1.705584 8.274335 0.988681 -0.002840 -0.003154 0.984299
8.287013 8.277499 0.988661 -0.002962 0.002628 0.984277
1.708370 1.727069 0.988527 0.003420 -0.002508 0.984089
8.299442 1.725606 0.988543 0.002252 0.003059 0.984097
3.609680 4.312330 0.952064 0.132489 -0.256542 0.966793
5.723378 3.626711 0.952737 0.256925 0.138957 0.967880
6.363062 5.703280 0.951780 -0.136026 0.260575 0.967031
4.312554 6.400702 0.952154 -0.253741 -0.136916 0.966780
8.486436 3.575492 0.992791 0.015540 0.028561 0.991225
1.543733 6.400372 0.992602 -0.014556 -0.030426 0.990985
6.373166 1.560539 0.992924 0.026655 0.007200 0.991590
6.400143 8.449516 0.992543 -0.030490 0.016392 0.990939
1.538009 3.604160 0.992584 0.007244 -0.026083 0.991038
3.580387 8.438610 0.992481 -0.028249 -0.008747 0.991243
3.603771 1.542119 0.992756 0.030140 -0.015274 0.991247
8.457881 6.396229 0.992648 -0.007113 0.025572 0.991142
4.182479 3.186061 0.972543 0.223259 -0.100735 0.982886
6.811263 4.185420 0.973198 0.100464 0.225458 0.984129
5.814580 6.811263 0.971988 -0.229808 0.098927 0.982871
3.184519 5.825914 0.973510 -0.100918 -0.222080 0.984043
5.343050 1.114355 0.993719 0.020873 -0.002330 0.992132
8.874387 5.349281 0.993429 0.001871 0.021200 0.991732
5.349281 8.874387 0.993342 -0.024312 0.006292 0.991673
1.125613 5.349281 0.993449 -0.006742 -0.023808 0.991908
7.395157 8.902338 0.990518 -0.007270 0.005733 0.986868
8.901342 7.398430 0.990469 -0.000093 0.001082 0.986833
2.639742 8.913104 0.990698 -0.001326 0.000167 0.987151
1.085431 7.398433 0.990417 -0.005015 -0.007426 0.986732
7.376715 1.100222 0.990733 0.001199 0.000227 0.987190
1.090401 2.599523 0.990429 0.000346 -0.001367 0.986762
2.611724 1.078164 0.990532 0.007432 -0.005075 0.986917
8.908863 2.610143 0.990403 0.005222 0.006874 0.986721
2.588563 3.955784 0.986820 0.057882 -0.136882 0.992454
6.013385 2.597351 0.987189 0.137285 0.056022 0.992911
3.974513 7.432394 0.985973 -0.138936 -0.055411 0.991727
7.415700 6.058604 0.986567 -0.056596 0.134401 0.991836
4.058309 5.244375 0.910278 -0.070164 -0.268170 0.929689
4.755625 4.058309 0.910387 0.267895 -0.072365 0.930066
5.941691 4.755625 0.909833 0.073659 0.268611 0.929435
5.244375 5.941691 0.909521 -0.267466 0.072051 0.929068
0.982144 8.979376 0.983278 0.001301 -0.001803 0.976673
8.980033 1.005597 0.983225 -0.001467 0.001622 0.976600
9.021911 9.019292 0.983122 -0.001540 -0.001391 0.976455
0.980708 0.978089 0.983024 0.001788 0.001513 0.976320
4.390055 9.028520 0.993695 -0.015263 0.001251 0.991876
0.971480 4.390055 0.993787 -0.002117 -0.014872 0.991978
9.028520 4.390055 0.993597 0.006312 0.017284 0.991591
4.390055 0.971480 0.993606 0.017203 -0.006425 0.991683
7.395155 7.961636 0.991654 -0.020592 0.017983 0.989530
2.604845 7.961636 0.991457 -0.020317 -0.015007 0.989345
7.386550 2.029987 0.991499 0.018842 0.013594 0.989264
2.029987 2.613450 0.991456 0.014084 -0.019373 0.989219
7.994465 7.205720 0.991720 -0.015671 0.022794 0.989880
2.005535 7.205720 0.991889 -0.020410 -0.026243 0.990070
8.001523 2.788091 0.991730 0.020375 0.024924 0.989865
2.779345 2.010348 0.991747 0.026083 -0.020401 0.989977
6.266082 7.564583 0.989159 -0.104787 0.054115 0.992645
2.426863 6.259901 0.988957 -0.050743 -0.102951 0.992036
3.685180 2.439402 0.989339 0.099646 -0.053713 0.992494
7.546262 3.729703 0.989639 0.052405 0.104451 0.993188
5.022469 3.058854 0.970319 0.257934 0.000658 0.981931
3.019209 5.001760 0.972137 -0.001802 -0.248683 0.983400
6.935430 5.017411 0.970150 0.002346 0.261238 0.982329
4.962175 6.935690 0.969876 -0.259134 -0.004945 0.981554
0.832281 8.181086 0.986738 -0.001287 -0.003965 0.981499
8.164980 9.162188 0.986774 -0.003677 0.001536 0.981549
8.181086 0.832281 0.986678 -0.002573 0.000094 0.981416
0.837844 1.835102 0.986620 0.000181 0.002234 0.981336
9.167719 8.181086 0.986772 0.000079 -0.002566 0.981551
1.818914 9.167719 0.986681 0.002450 0.000096 0.981419
1.818914 0.832281 0.986800 0.003940 -0.001035 0.981589
9.167719 1.818914 0.986609 0.001190 0.003693 0.981323
3.463676 3.544713 0.976143 0.161597 -0.165484 0.986966
6.451599 3.476202 0.976378 0.164854 0.161330 0.987112
6.541885 6.463657 0.976772 -0.157199 0.165833 0.987144
3.536343 6.541885 0.976306 -0.160180 -0.161668 0.986578
6.082425 9.199252 0.993286 -0.011147 0.005781 0.990896
6.086556 0.792692 0.993634 0.005421 -0.001307 0.991342
9.199904 6.085104 0.993449 0.001031 0.006247 0.991110
0.800096 6.085104 0.993283 -0.005231 -0.010594 0.990904
0.794928 3.342076 0.992641 -0.000627 -0.002726 0.989891
3.345178 0.791766 0.992550 0.008852 -0.005427 0.989755
9.208234 3.345178 0.992593 0.006011 0.008533 0.989821
3.347158 9.244216 0.992606 -0.001812 0.000857 0.989844
1.752570 4.356715 0.992067 0.006496 -0.058714 0.992439
4.356715 8.247430 0.991979 -0.059819 -0.008030 0.992374
4.356715 1.752570 0.992059 0.061827 -0.016303 0.992384
8.245118 4.347028 0.992918 0.015952 0.059032 0.993202
1.986097 5.728875 0.990564 -0.023369 -0.083081 0.992222
5.732996 8.081034 0.991897 -0.072878 0.022761 0.992968
5.677314 1.825135 0.991901 0.065674 0.009778 0.992643
8.192773 5.647287 0.991873 -0.008434 0.061659 0.992276
3.344457 7.749750 0.990909 -0.061709 -0.034670 0.991897
6.667520 2.202512 0.991401 0.056281 0.032038 0.991942
2.212070 3.332127 0.991081 0.032361 -0.056708 0.991516
4.277109 4.585078 0.901255 0.124058 -0.225523 0.922799
5.414922 4.277109 0.900973 0.225922 0.122731 0.922855
5.722891 5.414922 0.900259 -0.121508 0.225976 0.922084
4.585078 5.722891 0.901137 -0.222770 -0.123867 0.922759
6.777775 0.711876 0.992352 0.000509 -0.000878 0.989416
9.302383 6.793667 0.992163 0.000739 0.000284 0.989157
0.714571 6.796938 0.992112 -0.004359 -0.007427 0.989071
6.789939 9.289557 0.992118 -0.007356 0.004732 0.989073
7.506513 4.384500 0.986627 0.035938 0.146075 0.991677
4.364981 2.484274 0.986518 0.146352 -0.038711 0.991751
6.124735 4.076293 0.949044 0.187207 0.229126 0.964385
5.893394 6.168403 0.948619 -0.236949 0.180509 0.963491
4.083768 3.849609 0.951422 0.232829 -0.179220 0.966565
3.881000 5.925573 0.948531 -0.186909 -0.226922 0.963531
2.576605 5.548775 0.985237 -0.041088 -0.169822 0.992517
5.548775 7.423395 0.985383 -0.167789 0.041266 0.992024
7.835482 6.563091 0.991724 -0.029247 0.058246 0.992534
4.949677 9.346282 0.994130 -0.008826 0.002525 0.992091
4.949677 0.653718 0.994075 0.008739 -0.003147 0.991996
0.653718 4.949677 0.994140 -0.003185 -0.008402 0.992119
9.352500 4.948916 0.994022 0.002811 0.009148 0.991911
6.788684 7.940525 0.991992 -0.042481 0.028397 0.991337
4.954335 8.391499 0.992347 -0.056879 0.004474 0.992453
1.603078 4.951324 0.992515 -0.004557 -0.055492 0.992746
4.950523 1.597518 0.992437 0.055616 -0.005025 0.992445
8.413216 4.946289 0.992314 0.004715 0.050586 0.991778
7.006639 1.566909 0.992192 0.014091 0.006108 0.989860
1.573411 2.989054 0.991997 0.006638 -0.014342 0.989589
2.966602 8.414829 0.992020 -0.015658 -0.006825 0.989746
1.611194 7.676484 0.990368 -0.007389 -0.008749 0.986832
8.388618 7.702039 0.990166 -0.003799 0.005484 0.986573
2.318491 1.590831 0.990236 0.008631 -0.006839 0.986654
8.388618 2.297961 0.990293 0.007189 0.008064 0.986742
0.613041 3.911757 0.993652 -0.001367 -0.003717 0.991311
3.908297 9.379108 0.993551 -0.003582 0.000902 0.991188
9.402418 3.916470 0.993544 0.004650 0.008132 0.991136
3.913083 0.595392 0.993558 0.007636 -0.004027 0.991146
5.454737 2.598152 0.983902 0.170622 0.030013 0.990461
2.609916 4.561020 0.983454 0.030216 -0.174702 0.990111
7.395772 5.446024 0.983728 -0.027899 0.173889 0.990469
4.380613 6.985827 0.975194 -0.224782 -0.065650 0.985694
9.419976 9.409597 0.980483 -0.001341 -0.001325 0.972787
0.588320 9.411680 0.980517 0.001343 -0.001402 0.972834
0.588320 0.588320 0.980423 0.001438 0.001471 0.972703
9.411680 0.588320 0.980380 -0.001420 0.001415 0.972643
9.420990 5.547385 0.994022 0.001467 0.005866 0.991861
5.548259 0.603021 0.994111 0.005679 -0.001769 0.991991
0.575632 5.542564 0.993922 -0.003501 -0.007379 0.991714
5.542564 9.424368 0.993953 -0.007941 0.003339 0.991745
0.578352 7.663371 0.988814 -0.002030 -0.005087 0.984393
0.601287 2.343094 0.988847 -0.000405 0.002572 0.984448
7.659823 0.598707 0.988981 -0.003057 -0.000469 0.984632
2.345500 0.605869 0.989004 0.005010 -0.001982 0.984663
9.421640 7.663382 0.988826 0.000601 -0.003321 0.984414
7.659711 9.422696 0.988876 -0.004933 0.002395 0.984478
2.342422 9.432462 0.988915 0.003103 0.000781 0.984539
9.417988 2.337141 0.988728 0.002156 0.004717 0.984277
7.710894 1.562782 0.990068 0.004183 0.003290 0.986377
2.273789 8.437116 0.990188 -0.005207 -0.003286 0.986572
7.724230 8.438471 0.990065 -0.007292 0.006817 0.986367
1.562782 2.289106 0.989976 0.003648 -0.004656 0.986251
6.969839 8.514170 0.991809 -0.016289 0.011909 0.989125
8.519072 3.024369 0.991885 0.012118 0.016733 0.989340
8.505786 6.967655 0.991982 -0.005577 0.012874 0.989547
1.475297 6.966478 0.991924 -0.011359 -0.017406 0.989350
3.038824 1.486495 0.992166 0.017682 -0.012096 0.989765
3.499450 7.113092 0.986757 -0.122916 -0.088268 0.992616
6.506635 2.893892 0.986294 0.121705 0.087749 0.991919
7.106108 6.506635 0.986351 -0.089701 0.124164 0.992200
3.123327 3.988997 0.977128 0.108328 -0.197363 0.986880
3.650501 3.004195 0.984535 0.146932 -0.098742 0.991552
6.995805 3.650501 0.984693 0.096948 0.144868 0.991573
6.508220 7.027643 0.985196 -0.134543 0.100302 0.991826
2.971550 6.507206 0.985616 -0.096577 -0.133803 0.992017
1.361038 5.861407 0.992881 -0.010912 -0.030349 0.991487
5.858422 8.622577 0.992914 -0.031386 0.012124 0.991442
6.009468 3.122928 0.977083 0.197503 0.107311 0.987108
2.892236 3.492793 0.986460 0.089417 -0.123146 0.992243
6.876653 5.996596 0.977194 -0.105473 0.199995 0.987272
0.554409 8.665248 0.983539 0.000232 -0.003156 0.977036
9.445591 1.334752 0.983364 -0.000187 0.002966 0.976792
8.657701 0.548021 0.983486 -0.002974 0.000552 0.976962
8.662141 9.427069 0.983578 -0.002941 -0.000076 0.977090
0.572931 1.337859 0.983393 0.000644 0.002750 0.976832
1.317810 0.559097 0.983437 0.003043 0.000405 0.976894
9.440903 8.682190 0.983460 -0.000445 -0.002864 0.976925
1.333268 9.448243 0.983473 0.002755 -0.000471 0.976943
3.609008 4.879304 0.944104 0.025844 -0.295436 0.959990
5.113113 3.596009 0.943801 0.295896 0.028143 0.960293
6.403991 5.113113 0.943140 -0.027137 0.297809 0.959698
4.886887 6.403991 0.943552 -0.298087 -0.024062 0.959776
2.033337 3.881986 0.991546 0.021817 -0.068147 0.992634
4.496082 7.539687 0.985412 -0.153065 -0.026496 0.990800
3.875018 7.976184 0.990875 -0.070980 -0.023358 0.992165
5.878627 1.271920 0.993410 0.022247 0.001955 0.991839
8.682901 5.892480 0.993307 -0.002120 0.023962 0.991800
2.562060 2.481019 0.991510 0.031548 -0.031167 0.990423
2.503162 7.433752 0.991645 -0.033822 -0.033311 0.990885
7.494277 2.573080 0.991401 0.032131 0.031146 0.990377
7.496118 7.428934 0.991737 -0.030350 0.031712 0.990901
2.429604 6.861623 0.990961 -0.044504 -0.062249 0.991792
8.013200 3.331189 0.991879 0.028111 0.045408 0.991448
3.343625 2.028147 0.991823 0.048930 -0.029020 0.991590
6.151421 2.027401 0.991713 0.067504 0.023288 0.992828
2.905721 9.494866 0.991265 0.002157 0.001032 0.987842
2.872163 0.529272 0.991163 0.005748 -0.002907 0.987694
9.470728 2.872163 0.991100 0.003153 0.005382 0.987606
0.505134 2.905721 0.991219 -0.000662 0.001796 0.987772
1.239513 8.520468 0.986089 -0.000176 -0.002325 0.980598
1.239513 1.479532 0.986051 0.001518 0.000799 0.980549
8.539782 1.263805 0.986084 -0.000857 0.001277 0.980595
8.529481 8.755385 0.986106 -0.002010 0.000159 0.980623
4.597010 3.539246 0.951531 0.283787 -0.081501 0.966469
3.542377 5.399796 0.951174 -0.079774 -0.283954 0.966215
6.464844 4.607919 0.950305 0.081811 0.287466 0.965177
5.399796 6.457623 0.951107 -0.284982 0.081042 0.966443
2.097333 7.910378 0.990733 -0.010774 -0.009953 0.987609
7.912330 2.079566 0.990652 0.009744 0.009426 0.987475
2.089622 2.097333 0.990703 0.010166 -0.010241 0.987549
7.876455 7.906845 0.990658 -0.010277 0.011015 0.987560
1.113913 3.893214 0.993279 0.000483 -0.014960 0.991327
3.893214 8.886087 0.993118 -0.015472 -0.001284 0.991194
8.866770 3.891927 0.993367 0.009771 0.019018 0.991375
3.893214 1.113913 0.993242 0.018342 -0.008566 0.991182
3.894803 1.986444 0.991601 0.068876 -0.028682 0.992432
8.013556 3.894803 0.991712 0.027288 0.067704 0.992448
4.521382 5.184849 0.878508 -0.064017 -0.176799 0.902857
4.815151 4.521382 0.878577 0.177315 -0.067244 0.903024
5.478618 4.815151 0.878046 0.068234 0.175993 0.902525
5.184849 5.478618 0.877818 -0.174377 0.066198 0.902262
1.945153 6.698260 0.991926 -0.024445 -0.042356 0.991041
3.076852 2.447822 0.991592 0.058105 -0.044995 0.992565
7.552178 3.076852 0.991652 0.046393 0.057642 0.992714
9.508904 4.468856 0.994118 0.003025 0.006837 0.991923
4.468856 0.491096 0.994125 0.006434 -0.003265 0.991944
0.508374 4.481242 0.994146 -0.002007 -0.004481 0.992008
4.481242 9.491626 0.994069 -0.004624 0.001329 0.991903
6.805331 7.473325 0.990740 -0.070809 0.052979 0.992631
3.135002 4.528953 0.970118 0.060292 -0.246819 0.981172
5.523777 3.127075 0.970774 0.243129 0.069274 0.982084
6.885019 5.522359 0.970836 -0.066270 0.243877 0.982176
3.913694 6.853052 0.977294 -0.190256 -0.113441 0.986924
7.938678 6.125709 0.990889 -0.024250 0.070622 0.991968
8.707310 1.966045 0.988265 0.002647 0.003957 0.983681
1.961032 1.296416 0.988320 0.004404 -0.002487 0.983760
8.707310 8.033955 0.988357 -0.000773 0.000148 0.983815
1.314838 8.017406 0.988472 -0.003061 -0.004385 0.983974
8.917938 4.819150 0.993680 0.004784 0.021507 0.991963
4.823748 1.081129 0.993775 0.021099 -0.005151 0.992146
1.115859 4.841229 0.993639 -0.003943 -0.022714 0.992177
4.823748 8.918871 0.993458 -0.021614 0.003121 0.991798
6.706978 1.172780 0.992584 0.007506 0.000973 0.990025
1.071692 6.477770 0.992726 -0.007561 -0.013947 0.990213
6.477770 8.928308 0.992700 -0.013746 0.008256 0.990164
8.923406 6.478428 0.992720 -0.001087 0.009112 0.990274
7.540906 6.955202 0.990584 -0.041515 0.054193 0.991029
1.996511 6.217602 0.991606 -0.028147 -0.064832 0.992136
6.200645 8.046683 0.991548 -0.059954 0.028709 0.991736
7.184496 0.453091 0.990931 -0.002890 -0.000599 0.987356
7.188547 9.517184 0.990854 -0.005553 0.002962 0.987250
0.484057 7.185697 0.990848 -0.002648 -0.005637 0.987244
9.509179 7.179752 0.990859 0.000688 -0.002734 0.987266
2.243142 4.329689 0.988947 0.024360 -0.113324 0.992378
1.563551 5.392155 0.992644 -0.010363 -0.049160 0.992407
5.380570 8.433042 0.992253 -0.050428 0.010283 0.991731
1.899322 8.710877 0.988161 0.000051 -0.000663 0.983519
5.985668 7.197892 0.983536 -0.169332 0.077037 0.991012
2.793541 6.005944 0.982781 -0.077301 -0.167438 0.989696
4.557572 2.947922 0.976020 0.227992 -0.050954 0.986148
7.050742 4.566475 0.975300 0.052495 0.231036 0.985397
0.462107 6.400232 0.992879 -0.002901 -0.005967 0.990124
6.396386 0.455751 0.993183 -0.000083 -0.000981 0.990544
6.396324 9.543302 0.992920 -0.006099 0.003224 0.990177
9.551437 6.395914 0.993072 0.000763 0.000059 0.990398
8.042193 8.749542 0.988249 -0.003920 0.002938 0.983650
1.269967 1.930090 0.988056 0.001058 0.000008 0.983382
8.069910 1.269967 0.988131 -0.000330 0.000884 0.983488
2.447242 2.984972 0.991435 0.040980 -0.050847 0.991961
7.051707 2.477988 0.991520 0.049599 0.040443 0.992005
2.972482 7.549480 0.991362 -0.054254 -0.041415 0.992219
8.942736 8.563000 0.985385 -0.000816 -0.001611 0.979613
8.942736 1.437000 0.985187 -0.000133 0.002483 0.979337
1.456189 8.887251 0.985662 0.001315 -0.000975 0.979998
1.437000 1.057264 0.985335 0.002643 0.000239 0.979543
3.279908 8.783152 0.992438 -0.009985 -0.002046 0.990005
1.239216 3.282103 0.992367 0.002270 -0.010157 0.989845
5.719832 2.266628 0.988714 0.115804 0.027282 0.992432
4.900649 2.585013 0.983326 0.178867 -0.011065 0.990092
7.403891 4.896662 0.983375 0.011622 0.182276 0.990411
5.415863 7.001904 0.975809 -0.232605 0.050870 0.986012
3.007705 5.412278 0.975232 -0.049035 -0.234484 0.986226
2.622447 5.089938 0.983271 -0.007491 -0.187652 0.991144
5.117097 7.377813 0.983375 -0.184453 0.014471 0.990129
4.023465 2.769108 0.983476 0.162748 -0.070622 0.990069
7.281951 3.981374 0.985449 0.066472 0.151506 0.991658
7.885313 4.588281 0.989900 0.016651 0.102624 0.992220
4.571764 2.129052 0.989638 0.104233 -0.019160 0.992245
7.802836 5.717839 0.989573 -0.022251 0.104061 0.992556
5.862943 7.713344 0.988832 -0.112015 0.040054 0.992096
2.328140 5.899583 0.988905 -0.040849 -0.113456 0.992522
6.296888 6.103494 0.960772 -0.185307 0.211408 0.974607
3.486552 6.110734 0.969613 -0.148708 -0.210541 0.981531
3.651768 3.869601 0.963509 0.177551 -0.205035 0.976608
3.847435 6.353301 0.963232 -0.200675 -0.178165 0.975457
3.863065 3.525349 0.968925 0.210317 -0.155530 0.981285
6.133638 3.683832 0.963303 0.207594 0.181779 0.977043
6.527745 3.885357 0.970051 0.149316 0.213068 0.982335
6.140262 6.503135 0.969614 -0.205851 0.156535 0.981414
9.560763 8.070237 0.986586 0.000214 -0.003866 0.981279
1.945928 9.583950 0.986735 0.003705 0.000271 0.981487
0.423197 1.941888 0.986529 -0.000051 0.003555 0.981200
8.058112 0.423197 0.986691 -0.003838 -0.000013 0.981424
0.423197 8.058112 0.986652 -0.000934 -0.004465 0.981370
8.056396 9.581679 0.986684 -0.004290 0.001165 0.981414
1.929763 0.439237 0.986659 0.004292 -0.000744 0.981381
9.560763 1.929763 0.986453 0.000969 0.004110 0.981094
3.536225 9.583636 0.992896 0.000458 0.000667 0.990163
0.416364 3.536225 0.992936 -0.000720 0.000065 0.990210
3.514136 0.428019 0.992882 0.006002 -0.003095 0.990128
9.571981 3.514136 0.992899 0.003521 0.005784 0.990149
5.358107 1.549559 0.992960 0.047511 0.000980 0.992708
8.426129 5.349019 0.992506 -0.000966 0.048102 0.992161
2.201879 8.999626 0.988824 0.001141 0.000266 0.984441
8.792975 3.362698 0.992616 0.010328 0.015458 0.990225
3.328600 1.215652 0.992552 0.015634 -0.009482 0.990099
4.534751 8.673828 0.993221 -0.032277 0.000172 0.992118
1.368339 4.521314 0.993263 -0.000665 -0.032816 0.992269
4.558822 1.340132 0.993291 0.033405 -0.008406 0.992150
8.625241 4.504819 0.993108 0.009304 0.034453 0.991826
9.588020 5.930370 0.993751 0.001009 0.001849 0.991367
5.922865 9.574126 0.993752 -0.006036 0.002898 0.991375
5.930370 0.411980 0.993854 0.001542 -0.001305 0.991506
0.425874 5.922865 0.993754 -0.002845 -0.005694 0.991386
8.520577 3.999901 0.993196 0.013826 0.033745 0.991973
1.484976 3.986636 0.993028 0.004785 -0.032046 0.991963
3.975842 1.493756 0.992724 0.035510 -0.014438 0.991487