TITLE = "Example: 2D Finite Element Data"
VARIABLES = "X", "Y", "rho", "u", "v", "p"
ZONE NODES=3423, ELEMENTS = 6644, DATAPACKING = POINT, ZONETYPE = FEQUADRILATERAL, SOLUTIONTIME=8.131762e+00
0.000000 0.000000 0.994647 -0.000309 -0.000394 0.992518
10.000000 0.000000 0.994646 0.000329 -0.000386 0.992517
10.000000 10.000000 0.994636 0.000317 0.000243 0.992503
0.000000 10.000000 0.994637 -0.000326 0.000237 0.992504
0.200000 0.000000 0.994568 -0.000930 -0.000441 0.992408
0.400000 0.000000 0.994414 -0.001853 -0.000402 0.992194
0.600000 0.000000 0.994199 -0.002708 -0.000362 0.991893
0.800000 0.000000 0.993927 -0.003546 -0.000361 0.991514
1.000000 0.000000 0.993569 -0.004459 -0.000365 0.991014
1.200000 0.000000 0.993239 -0.005269 -0.000312 0.990556
1.400000 0.000000 0.992900 -0.005960 -0.000317 0.990084
1.600000 0.000000 0.992565 -0.006646 -0.000337 0.989618
1.800000 0.000000 0.992255 -0.007295 -0.000407 0.989190
2.000000 0.000000 0.992002 -0.007818 -0.000362 0.988843
2.200000 0.000000 0.991778 -0.008189 -0.000418 0.988537
2.400000 0.000000 0.991671 -0.008419 -0.000536 0.988401
2.600000 0.000000 0.991666 -0.008584 -0.000545 0.988407
2.800000 0.000000 0.991718 -0.008561 -0.000597 0.988493
3.000000 0.000000 0.991908 -0.008317 -0.000654 0.988774
3.200000 0.000000 0.992100 -0.007851 -0.000780 0.989063
3.400000 0.000000 0.992422 -0.007146 -0.000951 0.989541
3.600000 0.000000 0.992905 -0.006394 -0.001089 0.990242
3.800000 0.000000 0.993242 -0.005822 -0.001045 0.990730
4.000000 0.000000 0.993654 -0.004661 -0.001058 0.991329
4.200000 0.000000 0.994100 -0.003754 -0.000997 0.991969
4.400000 0.000000 0.994379 -0.002596 -0.000773 0.992371
4.600000 0.000000 0.994554 -0.001442 -0.000433 0.992628
4.800000 0.000000 0.994753 -0.000281 -0.000171 0.992915
5.000000 0.000000 0.994759 0.000766 -0.000021 0.992925
5.200000 0.000000 0.994739 0.001989 0.000113 0.992898
5.400000 0.000000 0.994587 0.003830 0.000246 0.992677
5.600000 0.000000 0.994408 0.004532 0.000305 0.992392
5.800000 0.000000 0.994062 0.005468 0.000520 0.991885
6.000000 0.000000 0.993627 0.006334 0.000696 0.991257
6.200000 0.000000 0.993184 0.007112 0.000782 0.990622
6.400000 0.000000 0.992768 0.008152 0.000794 0.990022
6.600000 0.000000 0.992428 0.008494 0.000773 0.989521
6.800000 0.000000 0.992081 0.008897 0.000815 0.989018
7.000000 0.000000 0.991834 0.009028 0.000837 0.988655
7.200000 0.000000 0.991689 0.009097 0.000772 0.988439
7.400000 0.000000 0.991567 0.009064 0.000668 0.988258
7.600000 0.000000 0.991578 0.008874 0.000583 0.988265
7.800000 0.000000 0.991670 0.008567 0.000456 0.988387
8.000000 0.000000 0.991899 0.008109 0.000284 0.988699
8.200000 0.000000 0.992203 0.007465 0.000105 0.989117
8.400000 0.000000 0.992500 0.006736 0.000039 0.989527
8.600000 0.000000 0.992834 0.006001 -0.000012 0.989991
8.800000 0.000000 0.993190 0.005302 -0.000075 0.990486
9.000000 0.000000 0.993532 0.004532 -0.000194 0.990963
9.200000 0.000000 0.993896 0.003643 -0.000253 0.991471
9.400000 0.000000 0.994190 0.002748 -0.000286 0.991881
9.600000 0.000000 0.994416 0.001874 -0.000342 0.992197
9.800000 0.000000 0.994567 0.000954 -0.000415 0.992406
10.000000 0.200000 0.994575 0.000387 -0.001003 0.992419
10.000000 0.400000 0.994433 0.000372 -0.001926 0.992220
10.000000 0.600000 0.994231 0.000370 -0.002780 0.991939
10.000000 0.800000 0.993967 0.000416 -0.003613 0.991570
10.000000 1.000000 0.993632 0.000449 -0.004492 0.991103
10.000000 1.200000 0.993287 0.000418 -0.005299 0.990623
10.000000 1.400000 0.992953 0.000464 -0.006006 0.990158
10.000000 1.600000 0.992627 0.000538 -0.006708 0.989705
10.000000 1.800000 0.992330 0.000654 -0.007380 0.989295
10.000000 2.000000 0.992089 0.000647 -0.007914 0.988965
10.000000 2.200000 0.991876 0.000730 -0.008293 0.988675
10.000000 2.400000 0.991776 0.000884 -0.008540 0.988547
10.000000 2.600000 0.991772 0.000919 -0.008728 0.988554
10.000000 2.800000 0.991814 0.000954 -0.008737 0.988625
10.000000 3.000000 0.991991 0.000977 -0.008523 0.988887
10.000000 3.200000 0.992165 0.001063 -0.008062 0.989151
10.000000 3.400000 0.992461 0.001176 -0.007310 0.989591
10.000000 3.600000 0.992915 0.001196 -0.006463 0.990250
10.000000 3.800000 0.993227 0.001027 -0.005804 0.990704
10.000000 4.000000 0.993616 0.000947 -0.004515 0.991271
10.000000 4.200000 0.994038 0.000731 -0.003474 0.991878
10.000000 4.400000 0.994283 0.000386 -0.002223 0.992232
10.000000 4.600000 0.994434 -0.000037 -0.001014 0.992455
10.000000 4.800000 0.994591 -0.000290 0.000109 0.992684
10.000000 5.000000 0.994631 -0.000396 0.001213 0.992745
10.000000 5.200000 0.994593 -0.000545 0.002552 0.992696
10.000000 5.400000 0.994412 -0.000625 0.004302 0.992434
10.000000 5.600000 0.994231 -0.000628 0.004984 0.992152
10.000000 5.800000 0.993906 -0.000763 0.005915 0.991677
10.000000 6.000000 0.993487 -0.000875 0.006736 0.991071
10.000000 6.200000 0.993059 -0.000903 0.007416 0.990456
10.000000 6.400000 0.992667 -0.000860 0.008324 0.989889
10.000000 6.600000 0.992332 -0.000760 0.008533 0.989392
10.000000 6.800000 0.991980 -0.000780 0.008813 0.988881
10.000000 7.000000 0.991735 -0.000793 0.008909 0.988523
10.000000 7.200000 0.991580 -0.000709 0.008977 0.988294
10.000000 7.400000 0.991479 -0.000548 0.008900 0.988141
10.000000 7.600000 0.991501 -0.000423 0.008693 0.988160
10.000000 7.800000 0.991594 -0.000298 0.008384 0.988281
10.000000 8.000000 0.991820 -0.000150 0.007924 0.988589
10.000000 8.200000 0.992130 -0.000002 0.007270 0.989015
10.000000 8.400000 0.992443 0.000043 0.006538 0.989448
10.000000 8.600000 0.992793 0.000071 0.005807 0.989934
10.000000 8.800000 0.993159 0.000088 0.005105 0.990444
10.000000 9.000000 0.993494 0.000172 0.004322 0.990910
10.000000 9.200000 0.993849 0.000204 0.003427 0.991406
10.000000 9.400000 0.994128 0.000231 0.002606 0.991794
10.000000 9.600000 0.994365 0.000288 0.001761 0.992125
10.000000 9.800000 0.994542 0.000350 0.000854 0.992373
9.800000 10.000000 0.994555 0.000947 0.000309 0.992391
9.600000 10.000000 0.994407 0.001871 0.000321 0.992183
9.400000 10.000000 0.994175 0.002742 0.000360 0.991860
9.200000 10.000000 0.993883 0.003629 0.000395 0.991453
9.000000 10.000000 0.993529 0.004509 0.000427 0.990959
8.800000 10.000000 0.993191 0.005269 0.000432 0.990489
8.600000 10.000000 0.992839 0.005936 0.000494 0.989998
8.400000 10.000000 0.992499 0.006615 0.000563 0.989526
8.200000 10.000000 0.992193 0.007251 0.000685 0.989102
8.000000 10.000000 0.991903 0.007806 0.000792 0.988703
7.800000 10.000000 0.991683 0.008219 0.000842 0.988403
7.600000 10.000000 0.991571 0.008451 0.000873 0.988255
7.400000 10.000000 0.991586 0.008534 0.000901 0.988284
7.200000 10.000000 0.991674 0.008472 0.000971 0.988418
7.000000 10.000000 0.991873 0.008266 0.000984 0.988710
6.800000 10.000000 0.992119 0.007779 0.000959 0.989069
6.600000 10.000000 0.992363 0.007242 0.000868 0.989429
6.400000 10.000000 0.992776 0.006261 0.000800 0.990034
6.200000 10.000000 0.993256 0.005678 0.000704 0.990724
6.000000 10.000000 0.993661 0.004746 0.000626 0.991309
5.800000 10.000000 0.994039 0.003638 0.000439 0.991857
5.600000 10.000000 0.994299 0.002538 0.000208 0.992244
5.400000 10.000000 0.994599 0.000682 0.000050 0.992695
5.200000 10.000000 0.994755 -0.000252 -0.000040 0.992922
5.000000 10.000000 0.994846 -0.001266 -0.000187 0.993049
4.800000 10.000000 0.994756 -0.002624 -0.000340 0.992923
4.600000 10.000000 0.994636 -0.003826 -0.000610 0.992748
4.400000 10.000000 0.994341 -0.004895 -0.000933 0.992326
4.200000 10.000000 0.993959 -0.005752 -0.001155 0.991781
4.000000 10.000000 0.993603 -0.006841 -0.001184 0.991268
3.800000 10.000000 0.993299 -0.007367 -0.001148 0.990815
3.600000 10.000000 0.992840 -0.008291 -0.001152 0.990157
3.400000 10.000000 0.992448 -0.008824 -0.000853 0.989582
3.200000 10.000000 0.992150 -0.009012 -0.000618 0.989136
3.000000 10.000000 0.991880 -0.009145 -0.000501 0.988736
2.800000 10.000000 0.991738 -0.009229 -0.000406 0.988522
2.600000 10.000000 0.991629 -0.009222 -0.000302 0.988356
2.400000 10.000000 0.991659 -0.009053 -0.000148 0.988384
2.200000 10.000000 0.991780 -0.008599 -0.000055 0.988541
2.000000 10.000000 0.991969 -0.008110 0.000006 0.988797
1.800000 10.000000 0.992242 -0.007578 0.000158 0.989173
1.600000 10.000000 0.992557 -0.006839 0.000184 0.989607
1.400000 10.000000 0.992884 -0.006095 0.000182 0.990062
1.200000 10.000000 0.993231 -0.005378 0.000188 0.990545
1.000000 10.000000 0.993556 -0.004592 0.000247 0.990997
0.800000 10.000000 0.993897 -0.003681 0.000256 0.991473
0.600000 10.000000 0.994180 -0.002768 0.000248 0.991867
0.400000 10.000000 0.994404 -0.001883 0.000259 0.992180
0.200000 10.000000 0.994556 -0.000955 0.000286 0.992392
0.000000 9.800000 0.994543 -0.000394 0.000849 0.992373
0.000000 9.600000 0.994367 -0.000393 0.001756 0.992127
0.000000 9.400000 0.994134 -0.000393 0.002589 0.991803
0.000000 9.200000 0.993858 -0.000433 0.003382 0.991418
0.000000 9.000000 0.993496 -0.000508 0.004241 0.990913
0.000000 8.800000 0.993141 -0.000469 0.005060 0.990419
0.000000 8.600000 0.992788 -0.000457 0.005744 0.989926
0.000000 8.400000 0.992440 -0.000483 0.006412 0.989444
0.000000 8.200000 0.992123 -0.000587 0.007037 0.989006
0.000000 8.000000 0.991830 -0.000664 0.007587 0.988603
0.000000 7.800000 0.991610 -0.000689 0.008005 0.988303
0.000000 7.600000 0.991496 -0.000729 0.008235 0.988153
0.000000 7.400000 0.991507 -0.000792 0.008318 0.988178
0.000000 7.200000 0.991574 -0.000889 0.008316 0.988284
0.000000 7.000000 0.991772 -0.000904 0.008169 0.988574
0.000000 6.800000 0.992020 -0.000868 0.007732 0.988936
0.000000 6.600000 0.992264 -0.000789 0.007282 0.989296
0.000000 6.400000 0.992667 -0.000756 0.006418 0.989889
0.000000 6.200000 0.993124 -0.000758 0.005970 0.990549
0.000000 6.000000 0.993514 -0.000759 0.005128 0.991113
0.000000 5.800000 0.993879 -0.000661 0.004067 0.991644
0.000000 5.600000 0.994129 -0.000507 0.003003 0.992015
0.000000 5.400000 0.994427 -0.000408 0.001200 0.992463
0.000000 5.200000 0.994584 -0.000370 0.000277 0.992688
0.000000 5.000000 0.994679 -0.000269 -0.000789 0.992818
0.000000 4.800000 0.994616 -0.000166 -0.002198 0.992726
0.000000 4.600000 0.994513 0.000098 -0.003440 0.992574
0.000000 4.400000 0.994239 0.000476 -0.004580 0.992180
0.000000 4.200000 0.993883 0.000802 -0.005531 0.991668
0.000000 4.000000 0.993555 0.000953 -0.006751 0.991194
0.000000 3.800000 0.993277 0.001064 -0.007393 0.990777
0.000000 3.600000 0.992845 0.001168 -0.008409 0.990154
0.000000 3.400000 0.992489 0.001010 -0.009013 0.989632
0.000000 3.200000 0.992217 0.000882 -0.009239 0.989225
0.000000 3.000000 0.991959 0.000829 -0.009366 0.988842
0.000000 2.800000 0.991830 0.000781 -0.009420 0.988648
0.000000 2.600000 0.991728 0.000699 -0.009377 0.988493
0.000000 2.400000 0.991764 0.000525 -0.009170 0.988531
0.000000 2.200000 0.991881 0.000387 -0.008689 0.988681
0.000000 2.000000 0.992063 0.000301 -0.008186 0.988929
0.000000 1.800000 0.992321 0.000127 -0.007640 0.989283
0.000000 1.600000 0.992623 0.000053 -0.006878 0.989699
0.000000 1.400000 0.992948 -0.000011 -0.006115 0.990151
0.000000 1.200000 0.993293 -0.000068 -0.005389 0.990632
0.000000 1.000000 0.993618 -0.000158 -0.004605 0.991084
0.000000 0.800000 0.993955 -0.000202 -0.003715 0.991554
0.000000 0.600000 0.994225 -0.000235 -0.002817 0.991931
0.000000 0.400000 0.994439 -0.000280 -0.001937 0.992229
0.000000 0.200000 0.994578 -0.000340 -0.001014 0.992422
5.000000 5.000000 0.879716 0.002370 -0.000120 0.905763
2.940722 2.920216 0.984329 0.074955 -0.079331 0.987261
7.069927 2.933321 0.984260 0.081098 0.074576 0.987389
7.071429 7.071429 0.984054 -0.073008 0.081272 0.987108
2.928571 7.071429 0.984625 -0.079115 -0.074609 0.987641
4.989590 2.222658 0.983804 0.122572 -0.000338 0.987918
2.193234 5.003669 0.984029 -0.000412 -0.121710 0.988301
7.803136 5.000000 0.984406 0.001588 0.118974 0.988138
5.006807 7.799705 0.983902 -0.121939 0.002399 0.987728
1.705584 8.274335 0.991831 -0.011016 -0.000443 0.988914
8.287013 8.277499 0.991803 -0.000347 0.010734 0.988885
1.708370 1.727069 0.991896 0.001013 -0.010912 0.989011
8.299442 1.725606 0.991996 0.009887 0.000017 0.989111
3.609680 4.312330 0.945771 0.104135 -0.206750 0.959769
5.723378 3.626711 0.946214 0.207391 0.109298 0.960640
6.363062 5.703280 0.945283 -0.106524 0.210383 0.959915
4.312554 6.400702 0.945716 -0.204801 -0.108075 0.959613
8.486436 3.575492 0.991634 0.015032 0.027776 0.990638
1.543733 6.400372 0.991421 -0.014287 -0.030224 0.990395
6.373166 1.560539 0.990735 0.042688 0.014104 0.989602
6.400143 8.449516 0.991452 -0.030141 0.016065 0.990505
1.538009 3.604160 0.990627 0.013931 -0.042098 0.989346
3.580387 8.438610 0.990429 -0.044846 -0.015678 0.989543
3.603771 1.542119 0.991515 0.029691 -0.014682 0.990567
8.457881 6.396229 0.990614 -0.013880 0.041501 0.989331
4.182479 3.186061 0.964939 0.186955 -0.087588 0.974661
6.811263 4.185420 0.965160 0.087626 0.188471 0.975398
5.814580 6.811263 0.963986 -0.192140 0.086441 0.974343
3.184519 5.825914 0.965621 -0.087877 -0.186439 0.975500
5.343050 1.114355 0.993106 0.030375 0.003112 0.992089
8.874387 5.349281 0.992760 -0.003632 0.030899 0.991598
5.349281 8.874387 0.993041 -0.028525 0.002098 0.992109
1.125613 5.349281 0.992889 -0.002348 -0.028236 0.992028
7.395157 8.902338 0.991862 0.000417 0.006885 0.988975
8.901342 7.398430 0.991436 -0.002675 0.015295 0.988437
2.639742 8.913104 0.991539 -0.015907 -0.002551 0.988590
1.085431 7.398433 0.991698 -0.006355 0.000135 0.988754
7.376715 1.100222 0.991509 0.015490 0.002924 0.988518
1.090401 2.599523 0.991592 0.002888 -0.015607 0.988623
2.611724 1.078164 0.991766 -0.000136 -0.006378 0.988900
8.908863 2.610143 0.991911 0.006552 -0.000776 0.989064
2.588563 3.955784 0.979763 0.056170 -0.135189 0.984775
6.013385 2.597351 0.979917 0.135602 0.054608 0.984967
3.974513 7.432394 0.979239 -0.137036 -0.054356 0.984501
7.415700 6.058604 0.979588 -0.055658 0.133432 0.984333
4.058309 5.244375 0.915249 -0.053802 -0.199347 0.935033
4.755625 4.058309 0.915385 0.199310 -0.055646 0.935364
5.941691 4.755625 0.914870 0.057424 0.199949 0.934913
5.244375 5.941691 0.914502 -0.198368 0.056365 0.934544
0.982144 8.979376 0.992972 -0.004555 0.003516 0.990194
8.980033 1.005597 0.993023 0.004526 -0.003515 0.990269
9.021911 9.019292 0.992998 0.003498 0.004423 0.990229
0.980708 0.978089 0.993135 -0.003316 -0.004367 0.990421
4.390055 9.028520 0.993303 -0.026214 -0.003863 0.992013
0.971480 4.390055 0.993203 0.003185 -0.025544 0.991838
9.028520 4.390055 0.993323 0.002649 0.018498 0.991812
4.390055 0.971480 0.993323 0.018610 -0.002761 0.991935
7.395155 7.961636 0.990844 -0.021161 0.024943 0.989405
2.604845 7.961636 0.990240 -0.034003 -0.019530 0.988707
7.386550 2.029987 0.990284 0.032620 0.017914 0.988540
2.029987 2.613450 0.990386 0.018374 -0.033099 0.988705
7.994465 7.205720 0.990030 -0.020537 0.037262 0.988611
2.005535 7.205720 0.990728 -0.026656 -0.026734 0.989554
8.001523 2.788091 0.990619 0.026503 0.025203 0.989407
2.779345 2.010348 0.990587 0.026545 -0.026644 0.989487
6.266082 7.564583 0.984299 -0.100306 0.053494 0.988062
2.426863 6.259901 0.984292 -0.050495 -0.098581 0.987637
3.685180 2.439402 0.984590 0.095380 -0.053736 0.987952
7.546262 3.729703 0.984696 0.052108 0.099314 0.988438
5.022469 3.058854 0.962468 0.216672 0.000161 0.973391
3.019209 5.001760 0.964223 -0.001711 -0.210619 0.974704
6.935430 5.017411 0.962092 0.002390 0.219133 0.973591
4.962175 6.935690 0.961842 -0.217687 -0.003156 0.972916
0.832281 8.181086 0.992115 -0.003912 0.005073 0.989046
8.164980 9.162188 0.992143 0.005391 0.003914 0.989085
8.181086 0.832281 0.992072 0.008565 -0.001100 0.988988
0.837844 1.835102 0.992178 -0.000879 -0.008948 0.989137
9.167719 8.181086 0.991915 0.001275 0.008676 0.988776
1.818914 9.167719 0.992074 -0.008846 0.001415 0.988983
1.818914 0.832281 0.992191 -0.005002 -0.003791 0.989161
9.167719 1.818914 0.992234 0.003893 -0.005222 0.989222
3.463676 3.544713 0.967214 0.137102 -0.146194 0.976868
6.451599 3.476202 0.967258 0.146202 0.136842 0.976833
6.541885 6.463657 0.967731 -0.133959 0.147631 0.977023
3.536343 6.541885 0.967628 -0.142075 -0.137911 0.976800
6.082425 9.199252 0.993108 -0.007462 0.003295 0.991050
6.086556 0.792692 0.993048 0.017767 0.003013 0.990879
9.199904 6.085104 0.992818 -0.003414 0.018746 0.990606
0.800096 6.085104 0.992981 -0.002802 -0.006982 0.990896
0.794928 3.342076 0.992236 0.003179 -0.017089 0.989612
3.345178 0.791766 0.992370 0.001545 -0.004072 0.989792
9.208234 3.345178 0.992479 0.004629 0.001306 0.989954
3.347158 9.244216 0.992177 -0.016264 -0.002833 0.989537
1.752570 4.356715 0.989139 0.012713 -0.070104 0.989929
4.356715 8.247430 0.989246 -0.071589 -0.013711 0.990146
4.356715 1.752570 0.989941 0.064562 -0.013348 0.991023
8.245118 4.347028 0.990805 0.013056 0.062017 0.991801
1.986097 5.728875 0.987454 -0.020766 -0.083811 0.989760
5.732996 8.081034 0.989267 -0.074547 0.020161 0.991095
5.677314 1.825135 0.988679 0.076687 0.015841 0.989828
8.192773 5.647287 0.988931 -0.014621 0.072877 0.989765
3.344457 7.749750 0.986678 -0.074802 -0.040094 0.987760
6.667520 2.202512 0.987252 0.070021 0.037265 0.987857
2.212070 3.332127 0.987106 0.037385 -0.070309 0.987650
4.277109 4.585078 0.909274 0.090257 -0.167049 0.931035
5.414922 4.277109 0.909020 0.168009 0.089127 0.931052
5.722891 5.414922 0.908337 -0.087344 0.168238 0.930445
4.585078 5.722891 0.909059 -0.164668 -0.089636 0.930991
6.777775 0.711876 0.991967 0.014724 0.002337 0.989079
9.302383 6.793667 0.991862 -0.002457 0.014599 0.988941
0.714571 6.796938 0.992198 -0.003207 0.001198 0.989389
6.789939 9.289557 0.992275 0.001429 0.003435 0.989483
7.506513 4.384500 0.981116 0.032945 0.135649 0.986239
4.364981 2.484274 0.980934 0.135719 -0.035134 0.986148
6.124735 4.076293 0.943444 0.151381 0.178851 0.958294
5.893394 6.168403 0.943019 -0.184726 0.146711 0.957618
4.083768 3.849609 0.945353 0.182520 -0.145147 0.959805
3.881000 5.925573 0.943216 -0.150544 -0.177207 0.957769
2.576605 5.548775 0.978886 -0.036645 -0.153658 0.985961
5.548775 7.423395 0.979109 -0.152754 0.037339 0.985684
7.835482 6.563091 0.987544 -0.034579 0.071757 0.988401
4.949677 9.346282 0.994421 -0.013477 -0.001011 0.992909
4.949677 0.653718 0.994252 0.012435 0.000259 0.992640
0.653718 4.949677 0.994211 0.000418 -0.012965 0.992646
9.352500 4.948916 0.994165 -0.000630 0.012844 0.992495
6.788684 7.940525 0.989607 -0.043434 0.032014 0.989485
4.954335 8.391499 0.990528 -0.064672 -0.000353 0.991469
1.603078 4.951324 0.990445 0.000848 -0.063362 0.991408
4.950523 1.597518 0.990529 0.062826 0.000099 0.991283
8.413216 4.946289 0.990612 -0.000335 0.058009 0.990781
7.006639 1.566909 0.990958 0.029976 0.011610 0.988890
1.573411 2.989054 0.991047 0.012030 -0.030153 0.989019
2.966602 8.414829 0.990917 -0.031860 -0.012573 0.989043
1.611194 7.676484 0.991688 -0.012729 -0.005324 0.989100
8.388618 7.702039 0.991274 -0.005545 0.017881 0.988553
2.318491 1.590831 0.991672 0.005034 -0.011956 0.989083
8.388618 2.297961 0.991838 0.012476 0.004671 0.989331
0.613041 3.911757 0.993153 0.002159 -0.015237 0.990916
3.908297 9.379108 0.993167 -0.015391 -0.002694 0.990970
9.402418 3.916470 0.993270 0.002395 0.003357 0.991033
3.913083 0.595392 0.993357 0.002491 -0.001916 0.991135
5.454737 2.598152 0.976897 0.159746 0.029505 0.982928
2.609916 4.561020 0.976518 0.029504 -0.162727 0.982664
7.395772 5.446024 0.976734 -0.027940 0.162417 0.982956
4.380613 6.985827 0.966755 -0.196380 -0.056658 0.976317
9.419976 9.409597 0.993867 0.002444 0.002668 0.991432
0.588320 9.411680 0.993833 -0.002775 0.002457 0.991384
0.588320 0.588320 0.993924 -0.002445 -0.002727 0.991511
9.411680 0.588320 0.993895 0.002673 -0.002544 0.991471
9.420990 5.547385 0.993927 -0.002117 0.014024 0.992065
5.548259 0.603021 0.994017 0.013754 0.001783 0.992203
0.575632 5.542564 0.993989 -0.000825 -0.006552 0.992146
5.542564 9.424368 0.994200 -0.007097 0.000685 0.992412
0.578352 7.663371 0.991668 -0.002620 0.006052 0.988430
0.601287 2.343094 0.991752 0.000277 -0.010906 0.988575
7.659823 0.598707 0.991601 0.010408 0.000170 0.988352
2.345500 0.605869 0.991788 -0.006087 -0.002446 0.988614
9.421640 7.663382 0.991535 0.000039 0.010157 0.988254
7.659711 9.422696 0.991729 0.006322 0.002772 0.988514
2.342422 9.432462 0.991641 -0.010550 0.000258 0.988406
9.417988 2.337141 0.991891 0.002695 -0.006332 0.988755
7.710894 1.562782 0.991413 0.016549 0.004905 0.988631
2.273789 8.437116 0.991424 -0.017871 -0.005031 0.988717
7.724230 8.438471 0.991704 -0.003269 0.011747 0.989038
1.562782 2.289106 0.991485 0.005255 -0.017144 0.988739
6.969839 8.514170 0.991457 -0.012955 0.013351 0.989292
8.519072 3.024369 0.991569 0.013948 0.013589 0.989608
8.505786 6.967655 0.990898 -0.011051 0.028784 0.988762
1.475297 6.966478 0.991478 -0.013006 -0.014333 0.989429
3.038824 1.486495 0.991738 0.014654 -0.013653 0.989902
3.499450 7.113092 0.979381 -0.121824 -0.083328 0.984500
6.506635 2.893892 0.978816 0.120904 0.082707 0.983770
7.106108 6.506635 0.978855 -0.083999 0.123000 0.984080
3.123327 3.988997 0.968316 0.093155 -0.175541 0.976948
3.650501 3.004195 0.977117 0.131508 -0.092780 0.983464
6.995805 3.650501 0.977261 0.091669 0.129845 0.983544
6.508220 7.027643 0.978030 -0.121813 0.096018 0.984212
2.971550 6.507206 0.978506 -0.092423 -0.121682 0.984379
1.361038 5.861407 0.991945 -0.008118 -0.032147 0.991239
5.858422 8.622577 0.992128 -0.032979 0.009276 0.991390
6.009468 3.122928 0.968057 0.175454 0.092433 0.976933
2.892236 3.492793 0.979045 0.083826 -0.121941 0.984144
6.876653 5.996596 0.968110 -0.090974 0.177939 0.977078
0.554409 8.665248 0.992815 -0.002573 0.005101 0.989971
9.445591 1.334752 0.992937 0.002393 -0.005279 0.990142
8.657701 0.548021 0.992843 0.005957 -0.001593 0.990011
8.662141 9.427069 0.992877 0.005217 0.002593 0.990059
0.572931 1.337859 0.992969 -0.001589 -0.006144 0.990188
1.317810 0.559097 0.992961 -0.005037 -0.002398 0.990176
9.440903 8.682190 0.992800 0.001856 0.005817 0.989951
1.333268 9.448243 0.992894 -0.006106 0.001767 0.990081
3.609008 4.879304 0.939892 0.018572 -0.231509 0.955466
5.113113 3.596009 0.939502 0.232021 0.020591 0.955586
6.403991 5.113113 0.938848 -0.019329 0.233665 0.955148
4.886887 6.403991 0.939180 -0.233440 -0.016547 0.955250
2.033337 3.881986 0.987419 0.027443 -0.080577 0.988613
4.496082 7.539687 0.979304 -0.147462 -0.026868 0.984507
3.875018 7.976184 0.986848 -0.083492 -0.028873 0.988337
5.878627 1.271920 0.992088 0.035759 0.008330 0.990878
8.682901 5.892480 0.991935 -0.008560 0.037716 0.990807
2.562060 2.481019 0.989267 0.034554 -0.041551 0.988690
2.503162 7.433752 0.989201 -0.044272 -0.036696 0.988985
7.494277 2.573080 0.988945 0.042569 0.034267 0.988370
7.496118 7.428934 0.989311 -0.033623 0.042789 0.988954
2.429604 6.861623 0.987299 -0.049975 -0.062991 0.988517
8.013200 3.331189 0.989621 0.030834 0.045683 0.989803
3.343625 2.028147 0.989371 0.049412 -0.031725 0.989721
6.151421 2.027401 0.987489 0.080260 0.029034 0.988702
2.905721 9.494866 0.991739 -0.012102 -0.000723 0.988622
2.872163 0.529272 0.991899 -0.005103 -0.002292 0.988832
9.470728 2.872163 0.991975 0.002518 -0.005392 0.988937
0.505134 2.905721 0.991797 0.001145 -0.012321 0.988686
1.239513 8.520468 0.992328 -0.006132 0.003424 0.989352
1.239513 1.479532 0.992386 -0.002128 -0.007225 0.989443
8.539782 1.263805 0.992344 0.007049 -0.002414 0.989385
8.529481 8.755385 0.992316 0.003576 0.006087 0.989339
4.597010 3.539246 0.945921 0.224069 -0.066908 0.960462
3.542377 5.399796 0.945498 -0.065308 -0.224255 0.960125
6.464844 4.607919 0.944847 0.067595 0.226791 0.959523
5.399796 6.457623 0.945286 -0.224565 0.067247 0.960347
2.097333 7.910378 0.991242 -0.020731 -0.010703 0.988982
7.912330 2.079566 0.991335 0.019489 0.009984 0.989050
2.089622 2.097333 0.991387 0.010721 -0.019951 0.989137
7.876455 7.906845 0.991084 -0.010869 0.020647 0.988837
1.113913 3.893214 0.992160 0.006387 -0.029157 0.990471
3.893214 8.886087 0.992075 -0.030184 -0.007202 0.990494
8.866770 3.891927 0.992758 0.007322 0.017505 0.991207
3.893214 1.113913 0.992679 0.016730 -0.006080 0.991065
3.894803 1.986444 0.988750 0.069295 -0.027832 0.990218
8.013556 3.894803 0.988870 0.026577 0.068021 0.990240
4.521382 5.184849 0.894952 -0.046405 -0.126383 0.919642
4.815151 4.521382 0.895051 0.127515 -0.049175 0.919772
5.478618 4.815151 0.894600 0.050891 0.126380 0.919412
5.184849 5.478618 0.894344 -0.124109 0.049302 0.919180
1.945153 6.698260 0.989839 -0.027360 -0.043006 0.989537
3.076852 2.447822 0.987921 0.058965 -0.050626 0.989230
7.552178 3.076852 0.987925 0.052211 0.058350 0.989335
9.508904 4.468856 0.994190 0.000561 0.005465 0.992289
4.468856 0.491096 0.994279 0.004949 -0.000854 0.992436
0.508374 4.481242 0.994081 0.001059 -0.011722 0.992232
4.481242 9.491626 0.994189 -0.012054 -0.001736 0.992383
6.805331 7.473325 0.986425 -0.070439 0.057400 0.988586
3.135002 4.528953 0.961936 0.050301 -0.209741 0.972085
5.523777 3.127075 0.962309 0.207286 0.058251 0.972624
6.885019 5.522359 0.962426 -0.055791 0.208381 0.972878
3.913694 6.853052 0.968606 -0.169967 -0.098407 0.977091
7.938678 6.125709 0.986687 -0.029762 0.082643 0.987866
8.707310 1.966045 0.992056 0.006961 -0.002231 0.989125
1.961032 1.296416 0.992038 -0.001708 -0.007050 0.989106
8.707310 8.033955 0.991752 -0.000060 0.011027 0.988711
1.314838 8.017406 0.991924 -0.007746 0.001540 0.988955
8.917938 4.819150 0.993343 0.000246 0.026657 0.992242
4.823748 1.081129 0.993428 0.026340 -0.000606 0.992439
1.115859 4.841229 0.992977 0.001336 -0.031116 0.992147
4.823748 8.918871 0.993112 -0.029930 -0.001840 0.992140
6.706978 1.172780 0.991635 0.022962 0.006218 0.989182
1.071692 6.477770 0.992327 -0.006143 -0.009823 0.990163
6.477770 8.928308 0.992423 -0.009336 0.006668 0.990275
8.923406 6.478428 0.991723 -0.006547 0.024278 0.989410
7.540906 6.955202 0.986438 -0.045270 0.066273 0.987031
1.996511 6.217602 0.988872 -0.028302 -0.065566 0.990055
6.200645 8.046683 0.988989 -0.060798 0.028515 0.989873
7.184496 0.453091 0.991617 0.011110 0.000843 0.988393
7.188547 9.517184 0.991785 0.005766 0.002330 0.988634
0.484057 7.185697 0.991727 -0.002156 0.005521 0.988563
9.509179 7.179752 0.991507 -0.000969 0.011408 0.988266
2.243142 4.329689 0.983656 0.027566 -0.116923 0.987026
1.563551 5.392155 0.990958 -0.005963 -0.054486 0.991493
5.380570 8.433042 0.990839 -0.055634 0.006195 0.991185
1.899322 8.710877 0.991880 -0.010697 0.000440 0.988837
5.985668 7.197892 0.976571 -0.150829 0.071063 0.983787
2.793541 6.005944 0.976158 -0.071010 -0.149067 0.982839
4.557572 2.947922 0.968462 0.194667 -0.044393 0.978005
7.050742 4.566475 0.967866 0.045943 0.196989 0.977537
0.462107 6.400232 0.992555 -0.001412 0.002026 0.989848
6.396386 0.455751 0.992703 0.012187 0.001434 0.990035
6.396324 9.543302 0.992695 0.001987 0.001685 0.990031
9.551437 6.395914 0.992577 -0.001774 0.012435 0.989879
8.042193 8.749542 0.991952 0.002702 0.006970 0.988960
1.269967 1.930090 0.991940 0.000296 -0.010892 0.988940
8.069910 1.269967 0.991875 0.010432 -0.000059 0.988850
2.447242 2.984972 0.987519 0.044981 -0.063016 0.988235
7.051707 2.477988 0.987558 0.061569 0.044413 0.988208
2.972482 7.549480 0.987312 -0.066115 -0.045734 0.988380
8.942736 8.563000 0.992382 0.002693 0.006799 0.989405
8.942736 1.437000 0.992560 0.004737 -0.004200 0.989654
1.456189 8.887251 0.992387 -0.007209 0.002483 0.989416
1.437000 1.057264 0.992568 -0.003963 -0.004827 0.989665
3.279908 8.783152 0.991528 -0.026194 -0.007659 0.989364
1.239216 3.282103 0.991470 0.007737 -0.025994 0.989176
5.719832 2.266628 0.983157 0.119141 0.030103 0.986774
4.900649 2.585013 0.976812 0.163238 -0.008368 0.983270
7.403891 4.896662 0.976823 0.008859 0.166174 0.983616
5.415863 7.001904 0.967923 -0.198201 0.045036 0.977639
3.007705 5.412278 0.967298 -0.042757 -0.198872 0.977614
2.622447 5.089938 0.976344 -0.005243 -0.169831 0.983794
5.117097 7.377813 0.976826 -0.167718 0.012162 0.983442
4.023465 2.769108 0.976929 0.145596 -0.065359 0.983212
7.281951 3.981374 0.978995 0.062663 0.137122 0.984978
7.885313 4.588281 0.986136 0.013535 0.102230 0.988951
4.571764 2.129052 0.985768 0.103179 -0.015929 0.988827
7.802836 5.717839 0.984601 -0.026292 0.109557 0.987585
5.862943 7.713344 0.984483 -0.107845 0.037501 0.988214
2.328140 5.899583 0.984377 -0.038545 -0.108600 0.988339
6.296888 6.103494 0.952620 -0.148502 0.175809 0.965509
3.486552 6.110734 0.961187 -0.127295 -0.173590 0.972097
3.651768 3.869601 0.955309 0.143938 -0.171320 0.967372
3.847435 6.353301 0.955404 -0.168247 -0.145039 0.966767
3.863065 3.525349 0.960398 0.172555 -0.132630 0.971657
6.133638 3.683832 0.954890 0.173204 0.146574 0.967576
6.527745 3.885357 0.961364 0.128176 0.175215 0.972652
6.140262 6.503135 0.961043 -0.169511 0.134869 0.971948
9.560763 8.070237 0.991878 0.000683 0.008219 0.988681
1.945928 9.583950 0.991975 -0.008680 0.000748 0.988819
0.423197 1.941888 0.992088 -0.000427 -0.008671 0.988974
8.058112 0.423197 0.991955 0.008348 -0.000509 0.988787
0.423197 8.058112 0.991949 -0.001846 0.006686 0.988776
8.056396 9.581679 0.992010 0.006951 0.001930 0.988861
1.929763 0.439237 0.992101 -0.006757 -0.001699 0.988994
9.560763 1.929763 0.992170 0.001909 -0.006898 0.989090
3.536225 9.583636 0.992539 -0.012304 -0.001714 0.989851
0.416364 3.536225 0.992551 0.001622 -0.012503 0.989848
3.514136 0.428019 0.992663 -0.002650 -0.001883 0.989994
9.571981 3.514136 0.992692 0.002307 -0.002809 0.990028
5.358107 1.549559 0.991053 0.057660 0.006867 0.991422
8.426129 5.349019 0.990566 -0.006808 0.058345 0.990836
2.201879 8.999626 0.991731 -0.011670 -0.000075 0.988621
8.792975 3.362698 0.992139 0.009614 0.011513 0.990170
3.328600 1.215652 0.992087 0.011590 -0.008887 0.990039
4.534751 8.673828 0.992172 -0.043745 -0.005564 0.991758
1.368339 4.521314 0.991817 0.005545 -0.044280 0.991384
4.558822 1.340132 0.992397 0.037879 -0.004216 0.991980
8.625241 4.504819 0.992151 0.005365 0.038452 0.991545
9.588020 5.930370 0.993436 -0.001505 0.011586 0.991134
5.922865 9.574126 0.993758 -0.001196 0.001017 0.991604
5.930370 0.411980 0.993561 0.011128 0.001226 0.991298
0.425874 5.922865 0.993662 -0.001033 -0.000898 0.991491
8.520577 3.999901 0.992011 0.011517 0.034916 0.991418
1.484976 3.986636 0.991042 0.011529 -0.046602 0.990338
3.975842 1.493756 0.991453 0.036677 -0.012350 0.990867