TITLE = "Example: 2D Finite Element Data"
VARIABLES = "X", "Y", "rho", "u", "v", "p"
ZONE NODES=3423, ELEMENTS = 6644, DATAPACKING = POINT, ZONETYPE = FEQUADRILATERAL, SOLUTIONTIME=2.228486e+00
0.000000 0.000000 1.000001 0.000002 0.000001 1.000001
10.000000 0.000000 1.000001 0.000002 0.000002 1.000002
10.000000 10.000000 1.000002 0.000003 0.000002 1.000003
0.000000 10.000000 1.000002 0.000002 0.000002 1.000002
0.200000 0.000000 1.000001 0.000001 0.000001 1.000001
0.400000 0.000000 1.000001 0.000000 0.000002 1.000001
0.600000 0.000000 1.000002 -0.000002 0.000003 1.000003
0.800000 0.000000 1.000005 -0.000005 0.000004 1.000007
1.000000 0.000000 1.000010 -0.000009 0.000006 1.000014
1.200000 0.000000 1.000018 -0.000017 0.000009 1.000025
1.400000 0.000000 1.000027 -0.000024 0.000012 1.000038
1.600000 0.000000 1.000040 -0.000033 0.000013 1.000055
1.800000 0.000000 1.000058 -0.000045 0.000014 1.000081
2.000000 0.000000 1.000075 -0.000053 0.000015 1.000105
2.200000 0.000000 1.000090 -0.000056 0.000008 1.000126
2.400000 0.000000 1.000105 -0.000051 -0.000006 1.000147
2.600000 0.000000 1.000113 -0.000039 -0.000020 1.000158
2.800000 0.000000 1.000109 -0.000018 -0.000042 1.000153
3.000000 0.000000 1.000096 0.000018 -0.000068 1.000134
3.200000 0.000000 1.000066 0.000064 -0.000103 1.000092
3.400000 0.000000 1.000021 0.000121 -0.000152 1.000029
3.600000 0.000000 0.999968 0.000159 -0.000216 0.999956
3.800000 0.000000 0.999900 0.000170 -0.000271 0.999861
4.000000 0.000000 0.999849 0.000211 -0.000276 0.999789
4.200000 0.000000 0.999797 0.000198 -0.000310 0.999716
4.400000 0.000000 0.999752 0.000208 -0.000279 0.999653
4.600000 0.000000 0.999700 0.000205 -0.000234 0.999581
4.800000 0.000000 0.999677 0.000178 -0.000189 0.999548
5.000000 0.000000 0.999656 0.000131 -0.000165 0.999520
5.200000 0.000000 0.999660 0.000102 -0.000115 0.999525
5.400000 0.000000 0.999688 0.000130 -0.000007 0.999564
5.600000 0.000000 0.999754 0.000027 -0.000024 0.999656
5.800000 0.000000 0.999799 0.000020 0.000030 0.999719
6.000000 0.000000 0.999841 0.000021 0.000081 0.999778
6.200000 0.000000 0.999880 0.000019 0.000114 0.999833
6.400000 0.000000 0.999914 0.000041 0.000153 0.999880
6.600000 0.000000 0.999968 0.000011 0.000149 0.999955
6.800000 0.000000 0.999995 0.000016 0.000148 0.999993
7.000000 0.000000 1.000025 0.000013 0.000141 1.000035
7.200000 0.000000 1.000040 0.000015 0.000128 1.000056
7.400000 0.000000 1.000044 0.000021 0.000112 1.000062
7.600000 0.000000 1.000046 0.000022 0.000099 1.000065
7.800000 0.000000 1.000045 0.000024 0.000085 1.000063
8.000000 0.000000 1.000041 0.000024 0.000069 1.000058
8.200000 0.000000 1.000034 0.000022 0.000053 1.000048
8.400000 0.000000 1.000027 0.000017 0.000041 1.000037
8.600000 0.000000 1.000022 0.000015 0.000032 1.000030
8.800000 0.000000 1.000017 0.000012 0.000025 1.000024
9.000000 0.000000 1.000012 0.000009 0.000018 1.000016
9.200000 0.000000 1.000008 0.000006 0.000012 1.000011
9.400000 0.000000 1.000005 0.000004 0.000008 1.000007
9.600000 0.000000 1.000003 0.000003 0.000005 1.000005
9.800000 0.000000 1.000002 0.000002 0.000003 1.000003
10.000000 0.200000 1.000000 0.000002 0.000001 1.000001
10.000000 0.400000 1.000000 0.000001 0.000001 1.000000
10.000000 0.600000 0.999999 0.000001 0.000000 0.999999
10.000000 0.800000 1.000000 0.000000 -0.000001 1.000000
10.000000 1.000000 1.000001 0.000000 -0.000003 1.000001
10.000000 1.200000 1.000004 0.000001 -0.000006 1.000006
10.000000 1.400000 1.000010 0.000004 -0.000012 1.000013
10.000000 1.600000 1.000018 0.000010 -0.000020 1.000026
10.000000 1.800000 1.000033 0.000021 -0.000033 1.000047
10.000000 2.000000 1.000049 0.000037 -0.000046 1.000068
10.000000 2.200000 1.000068 0.000058 -0.000058 1.000095
10.000000 2.400000 1.000091 0.000088 -0.000071 1.000127
10.000000 2.600000 1.000108 0.000117 -0.000080 1.000151
10.000000 2.800000 1.000119 0.000141 -0.000081 1.000166
10.000000 3.000000 1.000126 0.000159 -0.000066 1.000177
10.000000 3.200000 1.000123 0.000173 -0.000035 1.000173
10.000000 3.400000 1.000111 0.000184 0.000018 1.000156
10.000000 3.600000 1.000100 0.000179 0.000067 1.000141
10.000000 3.800000 1.000072 0.000147 0.000093 1.000102
10.000000 4.000000 1.000044 0.000089 0.000179 1.000062
10.000000 4.200000 1.000015 0.000030 0.000210 1.000021
10.000000 4.400000 0.999965 -0.000059 0.000265 0.999951
10.000000 4.600000 0.999906 -0.000153 0.000296 0.999870
10.000000 4.800000 0.999867 -0.000212 0.000287 0.999814
10.000000 5.000000 0.999825 -0.000236 0.000261 0.999755
10.000000 5.200000 0.999793 -0.000261 0.000257 0.999712
10.000000 5.400000 0.999751 -0.000290 0.000268 0.999652
10.000000 5.600000 0.999759 -0.000218 0.000159 0.999663
10.000000 5.800000 0.999753 -0.000209 0.000130 0.999654
10.000000 6.000000 0.999748 -0.000201 0.000099 0.999647
10.000000 6.200000 0.999752 -0.000182 0.000056 0.999653
10.000000 6.400000 0.999765 -0.000185 0.000028 0.999672
10.000000 6.600000 0.999810 -0.000133 -0.000035 0.999734
10.000000 6.800000 0.999848 -0.000111 -0.000047 0.999788
10.000000 7.000000 0.999888 -0.000092 -0.000053 0.999843
10.000000 7.200000 0.999924 -0.000077 -0.000051 0.999893
10.000000 7.400000 0.999958 -0.000052 -0.000040 0.999941
10.000000 7.600000 0.999985 -0.000033 -0.000029 0.999979
10.000000 7.800000 1.000005 -0.000019 -0.000016 1.000007
10.000000 8.000000 1.000019 -0.000009 -0.000003 1.000026
10.000000 8.200000 1.000026 0.000000 0.000006 1.000037
10.000000 8.400000 1.000027 0.000005 0.000011 1.000038
10.000000 8.600000 1.000025 0.000007 0.000012 1.000035
10.000000 8.800000 1.000022 0.000007 0.000012 1.000030
10.000000 9.000000 1.000017 0.000008 0.000011 1.000024
10.000000 9.200000 1.000012 0.000007 0.000008 1.000017
10.000000 9.400000 1.000009 0.000006 0.000006 1.000012
10.000000 9.600000 1.000006 0.000004 0.000004 1.000008
10.000000 9.800000 1.000004 0.000003 0.000003 1.000005
9.800000 10.000000 1.000003 0.000004 0.000003 1.000005
9.600000 10.000000 1.000005 0.000005 0.000006 1.000008
9.400000 10.000000 1.000008 0.000007 0.000010 1.000012
9.200000 10.000000 1.000012 0.000010 0.000015 1.000017
9.000000 10.000000 1.000018 0.000013 0.000022 1.000025
8.800000 10.000000 1.000023 0.000016 0.000031 1.000033
8.600000 10.000000 1.000031 0.000020 0.000040 1.000043
8.400000 10.000000 1.000041 0.000024 0.000053 1.000057
8.200000 10.000000 1.000051 0.000025 0.000069 1.000071
8.000000 10.000000 1.000060 0.000022 0.000086 1.000084
7.800000 10.000000 1.000066 0.000016 0.000098 1.000093
7.600000 10.000000 1.000070 0.000010 0.000110 1.000098
7.400000 10.000000 1.000072 -0.000001 0.000120 1.000101
7.200000 10.000000 1.000069 -0.000016 0.000130 1.000096
7.000000 10.000000 1.000060 -0.000037 0.000133 1.000084
6.800000 10.000000 1.000045 -0.000068 0.000121 1.000063
6.600000 10.000000 1.000007 -0.000094 0.000098 1.000010
6.400000 10.000000 0.999969 -0.000151 0.000052 0.999957
6.200000 10.000000 0.999924 -0.000141 0.000016 0.999894
6.000000 10.000000 0.999875 -0.000168 -0.000046 0.999825
5.800000 10.000000 0.999816 -0.000207 -0.000124 0.999742
5.600000 10.000000 0.999745 -0.000226 -0.000207 0.999643
5.400000 10.000000 0.999683 -0.000282 -0.000328 0.999558
5.200000 10.000000 0.999649 -0.000193 -0.000355 0.999509
5.000000 10.000000 0.999646 -0.000133 -0.000404 0.999506
4.800000 10.000000 0.999639 -0.000120 -0.000462 0.999495
4.600000 10.000000 0.999658 -0.000076 -0.000504 0.999523
4.400000 10.000000 0.999686 -0.000040 -0.000527 0.999561
4.200000 10.000000 0.999730 0.000003 -0.000506 0.999622
4.000000 10.000000 0.999788 0.000024 -0.000470 0.999703
3.800000 10.000000 0.999866 0.000061 -0.000372 0.999813
3.600000 10.000000 0.999912 0.000035 -0.000329 0.999877
3.400000 10.000000 0.999978 0.000035 -0.000227 0.999969
3.200000 10.000000 1.000038 0.000018 -0.000130 1.000053
3.000000 10.000000 1.000078 -0.000011 -0.000070 1.000109
2.800000 10.000000 1.000100 -0.000037 -0.000031 1.000140
2.600000 10.000000 1.000108 -0.000057 -0.000000 1.000151
2.400000 10.000000 1.000106 -0.000069 0.000026 1.000149
2.200000 10.000000 1.000096 -0.000068 0.000036 1.000134
2.000000 10.000000 1.000080 -0.000061 0.000036 1.000112
1.800000 10.000000 1.000066 -0.000055 0.000036 1.000092
1.600000 10.000000 1.000047 -0.000042 0.000029 1.000066
1.400000 10.000000 1.000032 -0.000030 0.000021 1.000045
1.200000 10.000000 1.000021 -0.000021 0.000015 1.000030
1.000000 10.000000 1.000013 -0.000013 0.000010 1.000018
0.800000 10.000000 1.000007 -0.000007 0.000006 1.000010
0.600000 10.000000 1.000004 -0.000003 0.000004 1.000005
0.400000 10.000000 1.000002 -0.000001 0.000002 1.000003
0.200000 10.000000 1.000001 0.000001 0.000002 1.000002
0.000000 9.800000 1.000003 0.000002 0.000002 1.000004
0.000000 9.600000 1.000005 0.000002 0.000004 1.000007
0.000000 9.400000 1.000008 0.000003 0.000005 1.000011
0.000000 9.200000 1.000012 0.000002 0.000008 1.000016
0.000000 9.000000 1.000016 0.000001 0.000010 1.000023
0.000000 8.800000 1.000021 -0.000001 0.000012 1.000030
0.000000 8.600000 1.000025 -0.000004 0.000012 1.000035
0.000000 8.400000 1.000028 -0.000008 0.000010 1.000039
0.000000 8.200000 1.000027 -0.000013 0.000002 1.000038
0.000000 8.000000 1.000020 -0.000017 -0.000012 1.000028
0.000000 7.800000 1.000008 -0.000019 -0.000028 1.000011
0.000000 7.600000 0.999990 -0.000022 -0.000045 0.999986
0.000000 7.400000 0.999968 -0.000026 -0.000064 0.999955
0.000000 7.200000 0.999937 -0.000035 -0.000082 0.999911
0.000000 7.000000 0.999906 -0.000040 -0.000096 0.999868
0.000000 6.800000 0.999876 -0.000028 -0.000118 0.999827
0.000000 6.600000 0.999834 -0.000019 -0.000123 0.999768
0.000000 6.400000 0.999808 -0.000001 -0.000129 0.999732
0.000000 6.200000 0.999791 -0.000037 -0.000070 0.999708
0.000000 6.000000 0.999788 -0.000044 -0.000050 0.999704
0.000000 5.800000 0.999788 -0.000047 -0.000049 0.999704
0.000000 5.600000 0.999783 -0.000050 -0.000042 0.999697
0.000000 5.400000 0.999799 -0.000017 -0.000077 0.999719
0.000000 5.200000 0.999820 -0.000062 -0.000010 0.999749
0.000000 5.000000 0.999859 -0.000059 0.000014 0.999803
0.000000 4.800000 0.999894 -0.000027 -0.000014 0.999852
0.000000 4.600000 0.999936 0.000026 -0.000025 0.999911
0.000000 4.400000 0.999966 0.000093 -0.000042 0.999954
0.000000 4.200000 0.999994 0.000143 -0.000048 0.999993
0.000000 4.000000 1.000030 0.000191 -0.000088 1.000043
0.000000 3.800000 1.000069 0.000202 -0.000083 1.000097
0.000000 3.600000 1.000074 0.000240 -0.000129 1.000104
0.000000 3.400000 1.000092 0.000224 -0.000123 1.000129
0.000000 3.200000 1.000104 0.000190 -0.000113 1.000145
0.000000 3.000000 1.000105 0.000166 -0.000112 1.000147
0.000000 2.800000 1.000098 0.000144 -0.000105 1.000138
0.000000 2.600000 1.000084 0.000119 -0.000096 1.000118
0.000000 2.400000 1.000066 0.000084 -0.000078 1.000093
0.000000 2.200000 1.000050 0.000050 -0.000056 1.000069
0.000000 2.000000 1.000038 0.000031 -0.000043 1.000053
0.000000 1.800000 1.000025 0.000017 -0.000031 1.000034
0.000000 1.600000 1.000014 0.000007 -0.000019 1.000019
0.000000 1.400000 1.000008 0.000003 -0.000012 1.000011
0.000000 1.200000 1.000004 0.000001 -0.000007 1.000005
0.000000 1.000000 1.000001 0.000001 -0.000004 1.000002
0.000000 0.800000 1.000000 0.000001 -0.000001 1.000000
0.000000 0.600000 1.000000 0.000001 -0.000000 0.999999
0.000000 0.400000 1.000000 0.000001 0.000000 0.999999
0.000000 0.200000 1.000000 0.000001 0.000001 1.000000
5.000000 5.000000 0.697463 0.001084 -0.000910 0.672081
2.940722 2.920216 0.988905 0.070089 -0.051205 0.987087
7.069927 2.933321 0.989127 0.053348 0.070477 0.987479
7.071429 7.071429 0.988823 -0.068818 0.052121 0.987095
2.928571 7.071429 0.989544 -0.049376 -0.069011 0.987872
4.989590 2.222658 0.987009 0.110805 0.012906 0.985403
2.193234 5.003669 0.987472 0.012169 -0.107592 0.986018
7.803136 5.000000 0.987463 -0.011238 0.104437 0.985594
5.006807 7.799705 0.986867 -0.108104 -0.012177 0.984934
1.705584 8.274335 0.999496 -0.000275 -0.001074 0.999297
8.287013 8.277499 0.999455 -0.000940 0.000031 0.999240
1.708370 1.727069 0.999402 0.001100 -0.000070 0.999166
8.299442 1.725606 0.999565 0.000048 0.000843 0.999393
3.609680 4.312330 0.933758 0.217202 -0.387188 0.929903
5.723378 3.626711 0.934465 0.386087 0.226734 0.930487
6.363062 5.703280 0.933996 -0.223899 0.390937 0.930024
4.312554 6.400702 0.935328 -0.380699 -0.221829 0.931969
8.486436 3.575492 0.996244 0.000763 0.013565 0.994906
1.543733 6.400372 0.995653 0.000340 -0.014456 0.994073
6.373166 1.560539 0.995144 0.011057 0.010912 0.993401
6.400143 8.449516 0.995661 -0.015167 0.000788 0.994092
1.538009 3.604160 0.995548 0.010449 -0.011034 0.993946
3.580387 8.438610 0.995209 -0.011291 -0.011385 0.993542
3.603771 1.542119 0.995630 0.014646 -0.000195 0.994059
8.457881 6.396229 0.995180 -0.010765 0.010712 0.993443
4.182479 3.186061 0.965113 0.297660 -0.115063 0.964330
6.811263 4.185420 0.966757 0.114666 0.300773 0.966772
5.814580 6.811263 0.965978 -0.306349 0.110532 0.965832
3.184519 5.825914 0.967244 -0.114362 -0.293665 0.966954
5.343050 1.114355 0.996448 0.008389 0.005066 0.995119
8.874387 5.349281 0.996289 -0.005376 0.008775 0.994902
5.349281 8.874387 0.996372 -0.010379 -0.003595 0.995024
1.125613 5.349281 0.996697 0.002921 -0.009551 0.995484
7.395157 8.902338 0.999614 -0.001142 0.000286 0.999462
8.901342 7.398430 0.999079 -0.001508 0.000228 0.998715
2.639742 8.913104 0.999283 -0.000430 -0.001187 0.999001
1.085431 7.398433 0.999348 0.000054 -0.001422 0.999091
7.376715 1.100222 0.999130 0.000440 0.001533 0.998786
1.090401 2.599523 0.999244 0.001406 -0.000476 0.998946
2.611724 1.078164 0.999477 0.001178 -0.000022 0.999272
8.908863 2.610143 0.999606 0.000099 0.001004 0.999452
2.588563 3.955784 0.985245 0.071999 -0.128507 0.984578
6.013385 2.597351 0.985438 0.129056 0.070222 0.984757
3.974513 7.432394 0.984471 -0.130567 -0.068820 0.983886
7.415700 6.058604 0.985144 -0.069791 0.124746 0.984063
4.058309 5.244375 0.846558 -0.118674 -0.483950 0.830761
4.755625 4.058309 0.846367 0.482853 -0.120170 0.830667
5.941691 4.755625 0.845754 0.121245 0.483060 0.829757
5.244375 5.941691 0.846138 -0.483206 0.119407 0.830318
0.982144 8.979376 1.000065 -0.000073 0.000033 1.000091
8.980033 1.005597 1.000002 0.000008 0.000011 1.000003
9.021911 9.019292 1.000056 0.000053 0.000051 1.000079
0.980708 0.978089 1.000011 0.000003 -0.000013 1.000015
4.390055 9.028520 0.997305 -0.005241 -0.004329 0.996283
0.971480 4.390055 0.997697 0.003500 -0.005448 0.996827
9.028520 4.390055 0.997697 -0.001903 0.006399 0.996818
4.390055 0.971480 0.997586 0.006106 0.001982 0.996670
7.395155 7.961636 0.996408 -0.010843 0.003150 0.995110
2.604845 7.961636 0.995900 -0.005798 -0.011042 0.994400
7.386550 2.029987 0.995906 0.005164 0.010397 0.994396
2.029987 2.613450 0.995977 0.010528 -0.005418 0.994495
7.994465 7.205720 0.995483 -0.012760 0.007405 0.993867
2.005535 7.205720 0.995644 -0.003942 -0.014502 0.994085
8.001523 2.788091 0.995749 0.004009 0.013730 0.994240
2.779345 2.010348 0.995438 0.014424 -0.003838 0.993819
6.266082 7.564583 0.988348 -0.092207 0.032034 0.986700
2.426863 6.259901 0.987826 -0.029098 -0.089801 0.985839
3.685180 2.439402 0.988021 0.087896 -0.031569 0.986090
7.546262 3.729703 0.988459 0.030988 0.094178 0.986861
5.022469 3.058854 0.963768 0.344945 0.020357 0.963641
3.019209 5.001760 0.966489 0.015730 -0.326028 0.967130
6.935430 5.017411 0.964519 -0.015683 0.349545 0.965057
4.962175 6.935690 0.963912 -0.346795 -0.026215 0.964047
0.832281 8.181086 1.000005 -0.000098 -0.000118 1.000007
8.164980 9.162188 1.000077 0.000001 0.000159 1.000108
8.181086 0.832281 0.999936 0.000035 0.000148 0.999911
0.837844 1.835102 0.999938 0.000142 -0.000048 0.999913
9.167719 8.181086 0.999945 -0.000091 0.000004 0.999923
1.818914 9.167719 1.000092 -0.000158 0.000032 1.000129
1.818914 0.832281 1.000015 0.000054 -0.000045 1.000021
9.167719 1.818914 1.000045 0.000069 0.000014 1.000063
3.463676 3.544713 0.971454 0.215621 -0.199028 0.972330
6.451599 3.476202 0.971644 0.196509 0.215104 0.972349
6.541885 6.463657 0.972628 -0.206533 0.195178 0.973386
3.536343 6.541885 0.971976 -0.189722 -0.213134 0.972693
6.082425 9.199252 0.998774 -0.003118 -0.000782 0.998297
6.086556 0.792692 0.998510 0.001707 0.002260 0.997924
9.199904 6.085104 0.998346 -0.002483 0.001964 0.997696
0.800096 6.085104 0.998804 0.000996 -0.002508 0.998338
0.794928 3.342076 0.999221 0.001613 -0.001108 0.998916
3.345178 0.791766 0.999423 0.001590 0.000109 0.999198
9.208234 3.345178 0.999522 0.000105 0.001499 0.999337
3.347158 9.244216 0.999132 -0.000513 -0.001418 0.998790
1.752570 4.356715 0.992542 0.015487 -0.035866 0.990401
4.356715 8.247430 0.992433 -0.036064 -0.017043 0.990299
4.356715 1.752570 0.992262 0.040221 0.001402 0.990027
8.245118 4.347028 0.993225 -0.001278 0.037818 0.991220
1.986097 5.728875 0.990373 -0.003701 -0.061011 0.988254
5.732996 8.081034 0.991793 -0.051118 0.002937 0.989665
5.677314 1.825135 0.991806 0.041838 0.018981 0.989519
8.192773 5.647287 0.991952 -0.017459 0.039054 0.989625
3.344457 7.749750 0.991665 -0.037179 -0.032730 0.989605
6.667520 2.202512 0.991794 0.032589 0.031162 0.989533
2.212070 3.332127 0.991696 0.031445 -0.033234 0.989419
4.277109 4.585078 0.822802 0.235059 -0.414732 0.805488
5.414922 4.277109 0.822729 0.413728 0.235188 0.805553
5.722891 5.414922 0.822353 -0.234678 0.413406 0.805122
4.585078 5.722891 0.823373 -0.410978 -0.235582 0.806138
6.777775 0.711876 0.999266 0.000553 0.001167 0.998975
9.302383 6.793667 0.999158 -0.001301 0.000381 0.998824
0.714571 6.796938 0.999489 0.000275 -0.001062 0.999286
6.789939 9.289557 0.999753 -0.001020 0.000080 0.999656
7.506513 4.384500 0.984386 0.018218 0.145050 0.983055
4.364981 2.484274 0.984198 0.145567 -0.021039 0.982989
6.124735 4.076293 0.926521 0.279839 0.367395 0.921009
5.893394 6.168403 0.926946 -0.379928 0.265672 0.921066
4.083768 3.849609 0.931579 0.370228 -0.265275 0.927241
3.881000 5.925573 0.925760 -0.280638 -0.365668 0.920128
2.576605 5.548775 0.983396 -0.025792 -0.180668 0.983689
5.548775 7.423395 0.983715 -0.175909 0.024517 0.983445
7.835482 6.563091 0.992110 -0.030114 0.034816 0.990035
4.949677 9.346282 0.998554 -0.002563 -0.002021 0.997989
4.949677 0.653718 0.998635 0.002542 0.001478 0.998101
0.653718 4.949677 0.998921 0.001274 -0.002313 0.998503
9.352500 4.948916 0.998683 -0.001688 0.002744 0.998169
6.788684 7.940525 0.993781 -0.026364 0.007783 0.991761
4.954335 8.391499 0.993053 -0.034222 -0.008989 0.990975
1.603078 4.951324 0.993197 0.008262 -0.032762 0.991168
4.950523 1.597518 0.992919 0.033424 0.008179 0.990736
8.413216 4.946289 0.992972 -0.008119 0.029959 0.990665
7.006639 1.566909 0.996754 0.004085 0.007100 0.995525
1.573411 2.989054 0.996989 0.007069 -0.004280 0.995853
2.966602 8.414829 0.996915 -0.004529 -0.006897 0.995761
1.611194 7.676484 0.998635 -0.000349 -0.003094 0.998103
8.388618 7.702039 0.998464 -0.002925 0.000615 0.997865
2.318491 1.590831 0.998659 0.002769 -0.000083 0.998136
8.388618 2.297961 0.998831 0.000238 0.002625 0.998378
0.613041 3.911757 0.999318 0.001285 -0.001345 0.999051
3.908297 9.379108 0.998946 -0.000932 -0.001753 0.998531
9.402418 3.916470 0.999448 -0.000244 0.001741 0.999233
3.913083 0.595392 0.999435 0.001434 0.000363 0.999214
5.454737 2.598152 0.981484 0.177279 0.049497 0.980835
2.609916 4.561020 0.980837 0.049712 -0.183443 0.980224
7.395772 5.446024 0.981805 -0.046635 0.181971 0.981457
4.380613 6.985827 0.970686 -0.278765 -0.099779 0.971500
9.419976 9.409597 1.000023 0.000021 0.000019 1.000032
0.588320 9.411680 1.000016 -0.000014 0.000012 1.000023
0.588320 0.588320 1.000002 0.000001 -0.000002 1.000003
9.411680 0.588320 0.999999 -0.000001 0.000004 0.999998
9.420990 5.547385 0.998819 -0.001751 0.001747 0.998355
5.548259 0.603021 0.998775 0.001707 0.001642 0.998294
0.575632 5.542564 0.999189 0.000764 -0.001536 0.998872
5.542564 9.424368 0.999005 -0.002036 -0.001112 0.998614
0.578352 7.663371 0.999938 -0.000038 -0.000203 0.999913
0.601287 2.343094 0.999904 0.000247 -0.000108 0.999867
7.659823 0.598707 0.999883 0.000076 0.000248 0.999837
2.345500 0.605869 1.000044 0.000066 -0.000070 1.000062
9.421640 7.663382 0.999875 -0.000183 -0.000018 0.999825
7.659711 9.422696 1.000096 -0.000079 0.000210 1.000135
2.342422 9.432462 1.000051 -0.000131 0.000000 1.000072
9.417988 2.337141 1.000089 0.000124 0.000009 1.000124
7.710894 1.562782 0.998667 0.000521 0.002589 0.998145
2.273789 8.437116 0.998705 -0.000793 -0.002536 0.998198
7.724230 8.438471 0.999034 -0.002040 0.000317 0.998657
1.562782 2.289106 0.998654 0.002649 -0.000616 0.998127
6.969839 8.514170 0.997660 -0.006174 0.000680 0.996765
8.519072 3.024369 0.997679 0.000546 0.006376 0.996809
8.505786 6.967655 0.996916 -0.006697 0.003671 0.995749
1.475297 6.966478 0.997428 -0.000081 -0.006784 0.996449
3.038824 1.486495 0.997459 0.006810 -0.000360 0.996502
3.499450 7.113092 0.985487 -0.112759 -0.099262 0.985045
6.506635 2.893892 0.984011 0.111772 0.098684 0.982888
7.106108 6.506635 0.984544 -0.101476 0.113773 0.983689
3.123327 3.988997 0.972503 0.150219 -0.236606 0.972740
3.650501 3.004195 0.982067 0.164012 -0.093108 0.981967
6.995805 3.650501 0.981946 0.089837 0.161589 0.981561
6.508220 7.027643 0.983221 -0.145632 0.090086 0.982960
2.971550 6.507206 0.983928 -0.086964 -0.143488 0.983592
1.361038 5.861407 0.995739 0.002187 -0.013626 0.994226
5.858422 8.622577 0.995625 -0.015222 -0.001476 0.994052
6.009468 3.122928 0.972721 0.237329 0.148734 0.973055
2.892236 3.492793 0.984474 0.101321 -0.113627 0.983612
6.876653 5.996596 0.973472 -0.146580 0.238381 0.973967
0.554409 8.665248 1.000043 -0.000047 0.000017 1.000060
9.445591 1.334752 1.000016 0.000010 -0.000012 1.000023
8.657701 0.548021 1.000000 0.000008 0.000025 1.000000
8.662141 9.427069 1.000064 0.000047 0.000074 1.000090
0.572931 1.337859 1.000003 0.000012 -0.000016 1.000004
1.317810 0.559097 1.000023 -0.000013 -0.000011 1.000032
9.440903 8.682190 1.000038 0.000038 0.000024 1.000053
1.333268 9.448243 1.000064 -0.000066 0.000047 1.000090
3.609008 4.879304 0.918421 0.056443 -0.471551 0.912234
5.113113 3.596009 0.918717 0.470916 0.060996 0.912797
6.403991 5.113113 0.918249 -0.060216 0.472001 0.912268
4.886887 6.403991 0.919111 -0.474652 -0.054840 0.913006
2.033337 3.881986 0.991537 0.027128 -0.044009 0.989372
4.496082 7.539687 0.983442 -0.148400 -0.043861 0.982373
3.875018 7.976184 0.990995 -0.045771 -0.028411 0.988826
5.878627 1.271920 0.995873 0.009015 0.007740 0.994335
8.682901 5.892480 0.995688 -0.008032 0.010146 0.994100
2.562060 2.481019 0.993776 0.021894 -0.011013 0.991690
2.503162 7.433752 0.993853 -0.012619 -0.023542 0.991850
7.494277 2.573080 0.993640 0.011841 0.022154 0.991540
7.496118 7.428934 0.994127 -0.021665 0.011253 0.992229
2.429604 6.861623 0.991164 -0.020920 -0.047303 0.988840
8.013200 3.331189 0.993699 0.007638 0.028873 0.991774
3.343625 2.028147 0.992979 0.031682 -0.008062 0.990823
6.151421 2.027401 0.991613 0.043222 0.027780 0.989444
2.905721 9.494866 0.999865 -0.000109 -0.000257 0.999811
2.872163 0.529272 1.000002 0.000264 -0.000098 1.000003
9.470728 2.872163 1.000052 0.000167 0.000180 1.000073
0.505134 2.905721 0.999856 0.000426 -0.000280 0.999798
1.239513 8.520468 1.000034 -0.000157 -0.000101 1.000047
1.239513 1.479532 0.999932 0.000158 -0.000030 0.999905
8.539782 1.263805 0.999951 0.000031 0.000130 0.999932
8.529481 8.755385 1.000012 -0.000027 0.000074 1.000016
4.597010 3.539246 0.931840 0.440807 -0.108307 0.927258
3.542377 5.399796 0.932023 -0.107364 -0.441695 0.927746
6.464844 4.607919 0.929969 0.108390 0.445787 0.924861
5.399796 6.457623 0.932382 -0.443616 0.106907 0.928353
2.097333 7.910378 0.997634 -0.001463 -0.005515 0.996725
7.912330 2.079566 0.997842 0.001113 0.005018 0.997016
2.089622 2.097333 0.997647 0.005382 -0.001147 0.996742
7.876455 7.906845 0.997652 -0.005394 0.001301 0.996757
1.113913 3.893214 0.997331 0.004968 -0.005560 0.996324
3.893214 8.886087 0.996964 -0.005093 -0.005548 0.995820
8.866770 3.891927 0.997697 -0.000652 0.007063 0.996828
3.893214 1.113913 0.997554 0.006600 0.001331 0.996625
3.894803 1.986444 0.991527 0.048471 -0.007539 0.989230
8.013556 3.894803 0.991890 0.006756 0.048000 0.989703
4.521382 5.184849 0.761194 -0.126754 -0.352489 0.739343
4.815151 4.521382 0.761018 0.351505 -0.129128 0.739231
5.478618 4.815151 0.760566 0.129377 0.351094 0.738638
5.184849 5.478618 0.760643 -0.350427 0.127620 0.738776
1.945153 6.698260 0.993893 -0.005047 -0.025302 0.991869
3.076852 2.447822 0.991752 0.044058 -0.021559 0.989639
7.552178 3.076852 0.991942 0.022628 0.044559 0.989928
9.508904 4.468856 0.999385 -0.000697 0.001591 0.999143
4.468856 0.491096 0.999293 0.001363 0.000527 0.999015
0.508374 4.481242 0.999371 0.000934 -0.001276 0.999125
4.481242 9.491626 0.998952 -0.001179 -0.001646 0.998539
6.805331 7.473325 0.990725 -0.057173 0.028818 0.988800
3.135002 4.528953 0.962829 0.098787 -0.326437 0.962392
5.523777 3.127075 0.964542 0.319087 0.109456 0.964506
6.885019 5.522359 0.964969 -0.106256 0.317503 0.964975
3.913694 6.853052 0.973389 -0.225340 -0.153392 0.974060
7.938678 6.125709 0.990781 -0.029628 0.047113 0.988441
8.707310 1.966045 0.999816 0.000062 0.000447 0.999744
1.961032 1.296416 0.999718 0.000578 0.000002 0.999607
8.707310 8.033955 0.999595 -0.000646 -0.000009 0.999435
1.314838 8.017406 0.999673 -0.000171 -0.000776 0.999544
8.917938 4.819150 0.996776 -0.003752 0.008957 0.995566
4.823748 1.081129 0.996771 0.008417 0.003565 0.995560
1.115859 4.841229 0.996705 0.004120 -0.009250 0.995499
4.823748 8.918871 0.996499 -0.008599 -0.004724 0.995195
6.706978 1.172780 0.997819 0.002174 0.003868 0.996969
1.071692 6.477770 0.998253 0.000919 -0.004070 0.997575
6.477770 8.928308 0.998401 -0.004251 -0.000433 0.997781
8.923406 6.478428 0.997601 -0.004276 0.002835 0.996669
7.540906 6.955202 0.991031 -0.036938 0.029936 0.988534
1.996511 6.217602 0.991917 -0.006899 -0.044003 0.989634
6.200645 8.046683 0.992126 -0.040089 0.007390 0.989788
7.184496 0.453091 0.999838 0.000124 0.000321 0.999773
7.188547 9.517184 1.000071 -0.000244 0.000205 1.000099
0.484057 7.185697 0.999846 0.000044 -0.000350 0.999785
9.509179 7.179752 0.999702 -0.000432 0.000031 0.999583
2.243142 4.329689 0.987730 0.036447 -0.094406 0.985918
1.563551 5.392155 0.993804 0.004043 -0.027568 0.991841
5.380570 8.433042 0.993394 -0.029453 -0.004595 0.991252
1.899322 8.710877 0.999838 -0.000223 -0.000404 0.999774
5.985668 7.197892 0.981493 -0.187863 0.066497 0.981491
2.793541 6.005944 0.979849 -0.068706 -0.185926 0.979066
4.557572 2.947922 0.971297 0.288968 -0.045484 0.971649
7.050742 4.566475 0.969990 0.047869 0.293385 0.969956
0.462107 6.400232 0.999604 0.000323 -0.000721 0.999447
6.396386 0.455751 0.999520 0.000429 0.000715 0.999329
6.396324 9.543302 0.999786 -0.000825 -0.000087 0.999702
9.551437 6.395914 0.999377 -0.000895 0.000408 0.999129
8.042193 8.749542 0.999845 -0.000356 0.000146 0.999784
1.269967 1.930090 0.999659 0.000619 -0.000078 0.999524
8.069910 1.269967 0.999683 0.000055 0.000594 0.999558
2.447242 2.984972 0.992237 0.035049 -0.027298 0.990109
7.051707 2.477988 0.992090 0.025994 0.034406 0.989889
2.972482 7.549480 0.992317 -0.029791 -0.035476 0.990314
8.942736 8.563000 1.000019 0.000009 0.000036 1.000026
8.942736 1.437000 1.000014 0.000031 0.000026 1.000020
1.456189 8.887251 1.000085 -0.000158 -0.000002 1.000119
1.437000 1.057264 1.000004 0.000042 -0.000027 1.000006
3.279908 8.783152 0.997669 -0.002586 -0.004296 0.996774
1.239216 3.282103 0.997727 0.004683 -0.003188 0.996852
5.719832 2.266628 0.987325 0.097829 0.039600 0.985550
4.900649 2.585013 0.980652 0.192047 0.006073 0.979996
7.403891 4.896662 0.981104 -0.004949 0.196395 0.980721
5.415863 7.001904 0.971863 -0.295160 0.043424 0.972345
3.007705 5.412278 0.970576 -0.043364 -0.301871 0.971467
2.622447 5.089938 0.981066 0.010205 -0.205173 0.981446
5.117097 7.377813 0.980816 -0.198637 -0.003917 0.980037
4.023465 2.769108 0.980293 0.179368 -0.059410 0.979507
7.281951 3.981374 0.982871 0.052665 0.161352 0.982134
7.885313 4.588281 0.988594 -0.001578 0.084158 0.986288
4.571764 2.129052 0.988190 0.085918 -0.000204 0.985964
7.802836 5.717839 0.988654 -0.033246 0.084228 0.986828
5.862943 7.713344 0.987760 -0.097333 0.019062 0.985804
2.328140 5.899583 0.987647 -0.020128 -0.099342 0.985929
6.296888 6.103494 0.949463 -0.282480 0.296023 0.947957
3.486552 6.110734 0.962256 -0.189214 -0.295619 0.962249
3.651768 3.869601 0.952874 0.265285 -0.284111 0.951609
3.847435 6.353301 0.952284 -0.275298 -0.264350 0.950403
3.863065 3.525349 0.961147 0.298583 -0.201523 0.961209
6.133638 3.683832 0.952435 0.288650 0.273832 0.951284
6.527745 3.885357 0.962810 0.189272 0.299184 0.962982
6.140262 6.503135 0.962170 -0.288240 0.197329 0.962022
9.560763 8.070237 1.000003 -0.000013 0.000004 1.000005
1.945928 9.583950 1.000096 -0.000100 0.000068 1.000134
0.423197 1.941888 1.000003 0.000047 -0.000043 1.000004
8.058112 0.423197 0.999998 0.000028 0.000070 0.999997
0.423197 8.058112 1.000022 -0.000047 -0.000033 1.000031
8.056396 9.581679 1.000091 0.000028 0.000129 1.000127
1.929763 0.439237 1.000062 -0.000029 -0.000030 1.000087
9.560763 1.929763 1.000067 0.000057 -0.000043 1.000093
3.536225 9.583636 0.999582 -0.000200 -0.000757 0.999417
0.416364 3.536225 0.999780 0.000639 -0.000545 0.999693
3.514136 0.428019 0.999854 0.000629 -0.000026 0.999797
9.571981 3.514136 0.999937 0.000152 0.000589 0.999913
5.358107 1.549559 0.993641 0.026677 0.011053 0.991603
8.426129 5.349019 0.993314 -0.011227 0.027671 0.991182
2.201879 8.999626 0.999873 -0.000217 -0.000305 0.999823
8.792975 3.362698 0.998232 0.000164 0.005121 0.997565
3.328600 1.215652 0.998094 0.005111 0.000164 0.997368
4.534751 8.673828 0.995264 -0.014811 -0.007970 0.993598
1.368339 4.521314 0.995279 0.007545 -0.015647 0.993635
4.558822 1.340132 0.995360 0.016271 0.003730 0.993724
8.625241 4.504819 0.995188 -0.003157 0.017509 0.993478
9.588020 5.930370 0.999298 -0.000924 0.000732 0.999019
5.922865 9.574126 0.999566 -0.001119 -0.000446 0.999395
5.930370 0.411980 0.999358 0.000671 0.000794 0.999103
0.425874 5.922865 0.999568 0.000388 -0.000785 0.999398
8.520577 3.999901 0.995628 -0.000702 0.016916 0.994088
1.484976 3.986636 0.995175 0.010396 -0.015085 0.993492
3.975842 1.493756 0.994936 0.018084 0.000844 0.993153