TITLE = "Example: 2D Finite Element Data"
VARIABLES = "X", "Y", "rho", "u", "v", "p"
ZONE NODES=3423, ELEMENTS = 6644, DATAPACKING = POINT, ZONETYPE = FEQUADRILATERAL, SOLUTIONTIME=9.607580e+00
0.000000 0.000000 1.001723 -0.000096 -0.000203 1.002419
10.000000 0.000000 1.001720 0.000055 -0.000175 1.002415
10.000000 10.000000 1.001721 0.000027 -0.000040 1.002417
0.000000 10.000000 1.001724 -0.000127 -0.000067 1.002421
0.200000 0.000000 1.001693 -0.000241 -0.000235 1.002377
0.400000 0.000000 1.001621 -0.000460 -0.000252 1.002277
0.600000 0.000000 1.001507 -0.000663 -0.000265 1.002118
0.800000 0.000000 1.001343 -0.000865 -0.000302 1.001890
1.000000 0.000000 1.001104 -0.001091 -0.000354 1.001558
1.200000 0.000000 1.000822 -0.001289 -0.000412 1.001166
1.400000 0.000000 1.000485 -0.001458 -0.000498 1.000698
1.600000 0.000000 1.000058 -0.001624 -0.000602 1.000108
1.800000 0.000000 0.999475 -0.001740 -0.000835 0.999302
2.000000 0.000000 0.998858 -0.001905 -0.001003 0.998452
2.200000 0.000000 0.998131 -0.002028 -0.001180 0.997449
2.400000 0.000000 0.997160 -0.001972 -0.001582 0.996116
2.600000 0.000000 0.996148 -0.002080 -0.001863 0.994728
2.800000 0.000000 0.995130 -0.002100 -0.002010 0.993331
3.000000 0.000000 0.994106 -0.001969 -0.002205 0.991930
3.200000 0.000000 0.992952 -0.001690 -0.002348 0.990357
3.400000 0.000000 0.991750 -0.001222 -0.002635 0.988727
3.600000 0.000000 0.990537 -0.001017 -0.002964 0.987079
3.800000 0.000000 0.989369 -0.001064 -0.002843 0.985481
4.000000 0.000000 0.988442 -0.000362 -0.002699 0.984227
4.200000 0.000000 0.987603 -0.000220 -0.002430 0.983086
4.400000 0.000000 0.986854 0.000244 -0.001877 0.982060
4.600000 0.000000 0.986224 0.000639 -0.001170 0.981202
4.800000 0.000000 0.985940 0.000981 -0.000525 0.980819
5.000000 0.000000 0.985755 0.001154 -0.000005 0.980563
5.200000 0.000000 0.985877 0.001642 0.000445 0.980735
5.400000 0.000000 0.986263 0.002678 0.000899 0.981257
5.600000 0.000000 0.986960 0.002291 0.001320 0.982178
5.800000 0.000000 0.987557 0.002534 0.001747 0.982971
6.000000 0.000000 0.988324 0.002694 0.002104 0.984008
6.200000 0.000000 0.989215 0.002827 0.002271 0.985220
6.400000 0.000000 0.990357 0.003302 0.002362 0.986780
6.600000 0.000000 0.991670 0.003062 0.002423 0.988566
6.800000 0.000000 0.992814 0.003132 0.002400 0.990129
7.000000 0.000000 0.993972 0.002884 0.002290 0.991714
7.200000 0.000000 0.995062 0.002814 0.002113 0.993211
7.400000 0.000000 0.996054 0.002726 0.001856 0.994575
7.600000 0.000000 0.996993 0.002551 0.001650 0.995871
7.800000 0.000000 0.997819 0.002394 0.001338 0.997010
8.000000 0.000000 0.998643 0.002193 0.001080 0.998150
8.200000 0.000000 0.999389 0.001939 0.000813 0.999178
8.400000 0.000000 0.999968 0.001702 0.000632 0.999979
8.600000 0.000000 1.000403 0.001456 0.000474 1.000583
8.800000 0.000000 1.000759 0.001258 0.000337 1.001078
9.000000 0.000000 1.001053 0.001072 0.000195 1.001488
9.200000 0.000000 1.001305 0.000852 0.000086 1.001838
9.400000 0.000000 1.001488 0.000635 0.000004 1.002092
9.600000 0.000000 1.001611 0.000424 -0.000077 1.002264
9.800000 0.000000 1.001687 0.000205 -0.000151 1.002369
10.000000 0.200000 1.001687 0.000091 -0.000307 1.002370
10.000000 0.400000 1.001611 0.000121 -0.000517 1.002264
10.000000 0.600000 1.001493 0.000157 -0.000715 1.002100
10.000000 0.800000 1.001323 0.000228 -0.000913 1.001863
10.000000 1.000000 1.001089 0.000310 -0.001127 1.001538
10.000000 1.200000 1.000793 0.000403 -0.001333 1.001126
10.000000 1.400000 1.000438 0.000536 -0.001518 1.000634
10.000000 1.600000 1.000003 0.000688 -0.001716 1.000030
10.000000 1.800000 0.999408 0.000974 -0.001865 0.999207
10.000000 2.000000 0.998784 0.001193 -0.002045 0.998347
10.000000 2.200000 0.998055 0.001414 -0.002175 0.997342
10.000000 2.400000 0.997075 0.001884 -0.002128 0.995997
10.000000 2.600000 0.996064 0.002213 -0.002248 0.994609
10.000000 2.800000 0.995048 0.002353 -0.002288 0.993213
10.000000 3.000000 0.994029 0.002523 -0.002164 0.991817
10.000000 3.200000 0.992889 0.002633 -0.001858 0.990262
10.000000 3.400000 0.991699 0.002867 -0.001303 0.988647
10.000000 3.600000 0.990507 0.003074 -0.000950 0.987028
10.000000 3.800000 0.989366 0.002822 -0.000872 0.985469
10.000000 4.000000 0.988462 0.002589 -0.000031 0.984247
10.000000 4.200000 0.987646 0.002175 0.000247 0.983137
10.000000 4.400000 0.986894 0.001514 0.000793 0.982109
10.000000 4.600000 0.986260 0.000735 0.001208 0.981245
10.000000 4.800000 0.985945 0.000110 0.001459 0.980822
10.000000 5.000000 0.985806 -0.000343 0.001663 0.980635
10.000000 5.200000 0.985921 -0.000793 0.002260 0.980799
10.000000 5.400000 0.986230 -0.001200 0.003137 0.981217
10.000000 5.600000 0.986886 -0.001607 0.002726 0.982087
10.000000 5.800000 0.987498 -0.001965 0.002944 0.982905
10.000000 6.000000 0.988264 -0.002266 0.003043 0.983941
10.000000 6.200000 0.989154 -0.002382 0.003063 0.985151
10.000000 6.400000 0.990309 -0.002416 0.003396 0.986727
10.000000 6.600000 0.991619 -0.002402 0.003028 0.988504
10.000000 6.800000 0.992737 -0.002364 0.002969 0.990030
10.000000 7.000000 0.993898 -0.002307 0.002725 0.991621
10.000000 7.200000 0.995000 -0.002133 0.002643 0.993137
10.000000 7.400000 0.996023 -0.001744 0.002498 0.994542
10.000000 7.600000 0.996983 -0.001479 0.002345 0.995864
10.000000 7.800000 0.997824 -0.001197 0.002182 0.997021
10.000000 8.000000 0.998654 -0.000976 0.001973 0.998166
10.000000 8.200000 0.999408 -0.000738 0.001707 0.999206
10.000000 8.400000 0.999995 -0.000575 0.001468 1.000018
10.000000 8.600000 1.000438 -0.000433 0.001234 1.000632
10.000000 8.800000 1.000798 -0.000332 0.001048 1.001133
10.000000 9.000000 1.001088 -0.000233 0.000874 1.001535
10.000000 9.200000 1.001327 -0.000162 0.000659 1.001867
10.000000 9.400000 1.001493 -0.000107 0.000472 1.002099
10.000000 9.600000 1.001612 -0.000046 0.000285 1.002264
10.000000 9.800000 1.001689 0.000010 0.000091 1.002372
9.800000 10.000000 1.001686 0.000178 0.000010 1.002367
9.600000 10.000000 1.001609 0.000403 0.000076 1.002261
9.400000 10.000000 1.001486 0.000612 0.000157 1.002090
9.200000 10.000000 1.001305 0.000821 0.000259 1.001838
9.000000 10.000000 1.001061 0.001031 0.000371 1.001498
8.800000 10.000000 1.000771 0.001209 0.000482 1.001095
8.600000 10.000000 1.000425 0.001370 0.000608 1.000613
8.400000 10.000000 0.999992 0.001541 0.000740 1.000013
8.200000 10.000000 0.999402 0.001648 0.001006 0.999197
8.000000 10.000000 0.998665 0.001785 0.001376 0.998178
7.800000 10.000000 0.997847 0.001946 0.001672 0.997048
7.600000 10.000000 0.997008 0.002018 0.001848 0.995890
7.400000 10.000000 0.996103 0.002047 0.002055 0.994644
7.200000 10.000000 0.995076 0.002013 0.002236 0.993231
7.000000 10.000000 0.994048 0.001916 0.002393 0.991820
6.800000 10.000000 0.992896 0.001673 0.002486 0.990242
6.600000 10.000000 0.991634 0.001431 0.002475 0.988515
6.400000 10.000000 0.990431 0.000796 0.002545 0.986886
6.200000 10.000000 0.989354 0.000909 0.002447 0.985420
6.000000 10.000000 0.988411 0.000569 0.002213 0.984136
5.800000 10.000000 0.987550 0.000104 0.001826 0.982969
5.600000 10.000000 0.986803 -0.000332 0.001332 0.981965
5.400000 10.000000 0.986282 -0.001489 0.000957 0.981288
5.200000 10.000000 0.985910 -0.001362 0.000519 0.980784
5.000000 10.000000 0.985872 -0.001589 0.000030 0.980730
4.800000 10.000000 0.985916 -0.002177 -0.000485 0.980791
4.600000 10.000000 0.986286 -0.002566 -0.001144 0.981295
4.400000 10.000000 0.986741 -0.002852 -0.001833 0.981914
4.200000 10.000000 0.987352 -0.002915 -0.002321 0.982746
4.000000 10.000000 0.988304 -0.003278 -0.002574 0.984049
3.800000 10.000000 0.989371 -0.003149 -0.002677 0.985491
3.600000 10.000000 0.990368 -0.003582 -0.002770 0.986851
3.400000 10.000000 0.991719 -0.003464 -0.002598 0.988689
3.200000 10.000000 0.992966 -0.003249 -0.002328 0.990380
3.000000 10.000000 0.994036 -0.003071 -0.002060 0.991835
2.800000 10.000000 0.995119 -0.002979 -0.001865 0.993318
2.600000 10.000000 0.996079 -0.002926 -0.001567 0.994634
2.400000 10.000000 0.997123 -0.002807 -0.001324 0.996066
2.200000 10.000000 0.998093 -0.002543 -0.001133 0.997397
2.000000 10.000000 0.998796 -0.002263 -0.000895 0.998366
1.800000 10.000000 0.999451 -0.002090 -0.000650 0.999270
1.600000 10.000000 1.000044 -0.001853 -0.000492 1.000088
1.400000 10.000000 1.000468 -0.001603 -0.000369 1.000675
1.200000 10.000000 1.000813 -0.001393 -0.000278 1.001154
1.000000 10.000000 1.001095 -0.001194 -0.000196 1.001545
0.800000 10.000000 1.001332 -0.000954 -0.000150 1.001875
0.600000 10.000000 1.001507 -0.000719 -0.000127 1.002118
0.400000 10.000000 1.001623 -0.000500 -0.000099 1.002280
0.200000 10.000000 1.001694 -0.000279 -0.000072 1.002379
0.000000 9.800000 1.001691 -0.000173 0.000062 1.002374
0.000000 9.600000 1.001614 -0.000220 0.000260 1.002268
0.000000 9.400000 1.001498 -0.000266 0.000442 1.002106
0.000000 9.200000 1.001335 -0.000335 0.000615 1.001878
0.000000 9.000000 1.001098 -0.000426 0.000808 1.001550
0.000000 8.800000 1.000805 -0.000496 0.000988 1.001142
0.000000 8.600000 1.000451 -0.000588 0.001136 1.000650
0.000000 8.400000 1.000013 -0.000695 0.001291 1.000043
0.000000 8.200000 0.999419 -0.000937 0.001390 0.999221
0.000000 8.000000 0.998675 -0.001271 0.001526 0.998195
0.000000 7.800000 0.997849 -0.001537 0.001693 0.997056
0.000000 7.600000 0.996992 -0.001725 0.001758 0.995875
0.000000 7.400000 0.996078 -0.001976 0.001747 0.994618
0.000000 7.200000 0.995024 -0.002205 0.001785 0.993169
0.000000 7.000000 0.993973 -0.002391 0.001752 0.991725
0.000000 6.800000 0.992833 -0.002444 0.001551 0.990162
0.000000 6.600000 0.991578 -0.002410 0.001386 0.988448
0.000000 6.400000 0.990374 -0.002499 0.000860 0.986820
0.000000 6.200000 0.989290 -0.002493 0.001118 0.985346
0.000000 6.000000 0.988349 -0.002335 0.000880 0.984065
0.000000 5.800000 0.987496 -0.002033 0.000475 0.982910
0.000000 5.600000 0.986760 -0.001609 0.000101 0.981919
0.000000 5.400000 0.986274 -0.001256 -0.000966 0.981289
0.000000 5.200000 0.985925 -0.000842 -0.000793 0.980813
0.000000 5.000000 0.985890 -0.000409 -0.001047 0.980760
0.000000 4.800000 0.985962 0.000041 -0.001646 0.980855
0.000000 4.600000 0.986338 0.000680 -0.002029 0.981365
0.000000 4.400000 0.986791 0.001411 -0.002352 0.981978
0.000000 4.200000 0.987394 0.001988 -0.002493 0.982796
0.000000 4.000000 0.988330 0.002352 -0.002988 0.984072
0.000000 3.800000 0.989373 0.002597 -0.002989 0.985481
0.000000 3.600000 0.990349 0.002790 -0.003540 0.986812
0.000000 3.400000 0.991682 0.002754 -0.003539 0.988625
0.000000 3.200000 0.992913 0.002589 -0.003407 0.990295
0.000000 3.000000 0.993963 0.002384 -0.003258 0.991726
0.000000 2.800000 0.995036 0.002234 -0.003159 0.993196
0.000000 2.600000 0.995992 0.001951 -0.003082 0.994509
0.000000 2.400000 0.997040 0.001659 -0.002927 0.995949
0.000000 2.200000 0.998021 0.001384 -0.002655 0.997295
0.000000 2.000000 0.998732 0.001104 -0.002366 0.998274
0.000000 1.800000 0.999380 0.000819 -0.002176 0.999170
0.000000 1.600000 0.999975 0.000615 -0.001910 0.999992
0.000000 1.400000 1.000414 0.000431 -0.001635 1.000600
0.000000 1.200000 1.000772 0.000286 -0.001411 1.001097
0.000000 1.000000 1.001066 0.000160 -0.001209 1.001506
0.000000 0.800000 1.001314 0.000073 -0.000980 1.001850
0.000000 0.600000 1.001493 0.000015 -0.000758 1.002100
0.000000 0.400000 1.001615 -0.000036 -0.000548 1.002269
0.000000 0.200000 1.001691 -0.000083 -0.000341 1.002375
5.000000 5.000000 0.897160 0.002337 0.000001 0.924846
2.940722 2.920216 0.982199 0.076570 -0.074084 0.985352
7.069927 2.933321 0.982084 0.075648 0.076132 0.985443
7.071429 7.071429 0.981948 -0.074469 0.076007 0.985254
2.928571 7.071429 0.982466 -0.074148 -0.076314 0.985698
4.989590 2.222658 0.977381 0.120197 0.001134 0.979924
2.193234 5.003669 0.977553 0.000947 -0.119454 0.980245
7.803136 5.000000 0.977951 0.000316 0.117264 0.980122
5.006807 7.799705 0.977420 -0.119804 0.001255 0.979716
1.705584 8.274335 0.996948 -0.009087 -0.005309 0.996282
8.287013 8.277499 0.996900 -0.005109 0.008609 0.996226
1.708370 1.727069 0.996909 0.005767 -0.008822 0.996235
8.299442 1.725606 0.997078 0.007867 0.004752 0.996410
3.609680 4.312330 0.947422 0.094896 -0.178061 0.962212
5.723378 3.626711 0.947852 0.178507 0.099336 0.963098
6.363062 5.703280 0.947075 -0.096684 0.181146 0.962613
4.312554 6.400702 0.947266 -0.176305 -0.098335 0.961960
8.486436 3.575492 0.988790 0.016846 0.035954 0.987360
1.543733 6.400372 0.988434 -0.016310 -0.038396 0.986937
6.373166 1.560539 0.987280 0.042089 0.016268 0.985458
6.400143 8.449516 0.988392 -0.038170 0.017959 0.986961
1.538009 3.604160 0.987325 0.016052 -0.041457 0.985406
3.580387 8.438610 0.987158 -0.044427 -0.017916 0.985701
3.603771 1.542119 0.988507 0.037804 -0.016415 0.987064
8.457881 6.396229 0.987249 -0.015906 0.040895 0.985293
4.182479 3.186061 0.962851 0.171355 -0.074916 0.972592
6.811263 4.185420 0.962983 0.075014 0.172446 0.973235
5.814580 6.811263 0.961907 -0.175708 0.074068 0.972399
3.184519 5.825914 0.963412 -0.075165 -0.171108 0.973316
5.343050 1.114355 0.985035 0.033865 0.003119 0.981382
8.874387 5.349281 0.984793 -0.003543 0.034329 0.981029
5.349281 8.874387 0.985116 -0.034724 0.003648 0.981641
1.125613 5.349281 0.985110 -0.003769 -0.034538 0.981777
7.395157 8.902338 0.995345 -0.006714 0.007676 0.994068
8.901342 7.398430 0.994661 -0.005260 0.011302 0.993181
2.639742 8.913104 0.994524 -0.012101 -0.005209 0.993007
1.085431 7.398433 0.995238 -0.007234 -0.007129 0.993927
7.376715 1.100222 0.994509 0.011509 0.005444 0.992941
1.090401 2.599523 0.994719 0.005494 -0.011596 0.993221
2.611724 1.078164 0.995277 0.007145 -0.007265 0.994049
8.908863 2.610143 0.995338 0.007385 0.006257 0.994079
2.588563 3.955784 0.975997 0.055450 -0.125754 0.980512
6.013385 2.597351 0.976052 0.126203 0.054080 0.980577
3.974513 7.432394 0.975381 -0.127640 -0.053782 0.980124
7.415700 6.058604 0.975879 -0.055222 0.124101 0.980177
4.058309 5.244375 0.923491 -0.041597 -0.170222 0.944722
4.755625 4.058309 0.923666 0.170288 -0.043352 0.945062
5.941691 4.755625 0.923272 0.045179 0.170738 0.944824
5.244375 5.941691 0.922863 -0.169157 0.044309 0.944434
0.982144 8.979376 1.000422 -0.001980 0.000236 1.000630
8.980033 1.005597 1.000332 0.001793 -0.000353 1.000512
9.021911 9.019292 1.000453 0.000381 0.001746 1.000673
0.980708 0.978089 1.000475 -0.000272 -0.001769 1.000704
4.390055 9.028520 0.985765 -0.028213 -0.004136 0.981986
0.971480 4.390055 0.985850 0.003605 -0.027360 0.982065
9.028520 4.390055 0.986294 0.004537 0.025190 0.982463
4.390055 0.971480 0.986200 0.025312 -0.004585 0.982476
7.395155 7.961636 0.991743 -0.027869 0.025041 0.991348
2.604845 7.961636 0.991084 -0.032705 -0.024320 0.990596
7.386550 2.029987 0.991090 0.031083 0.022345 0.990330
2.029987 2.613450 0.991186 0.022854 -0.031561 0.990490
7.994465 7.205720 0.990218 -0.024568 0.035707 0.989588
2.005535 7.205720 0.991012 -0.027133 -0.033738 0.990688
8.001523 2.788091 0.990912 0.026820 0.032095 0.990544
2.779345 2.010348 0.990897 0.033491 -0.026832 0.990663
6.266082 7.564583 0.980317 -0.101554 0.050045 0.983613
2.426863 6.259901 0.980393 -0.047355 -0.100060 0.983261
3.685180 2.439402 0.980863 0.097191 -0.050226 0.983804
7.546262 3.729703 0.980749 0.048660 0.100583 0.984020
5.022469 3.058854 0.960089 0.194879 0.003820 0.970812
3.019209 5.001760 0.961500 0.002130 -0.190432 0.971673
6.935430 5.017411 0.959762 -0.001499 0.196839 0.971120
4.962175 6.935690 0.959481 -0.195533 -0.006176 0.970455
0.832281 8.181086 0.998830 -0.003160 -0.000526 0.998496
8.164980 9.162188 0.998768 -0.000173 0.003103 0.998408
8.181086 0.832281 0.998554 0.003968 0.001218 0.998111
0.837844 1.835102 0.998560 0.001441 -0.004366 0.998124
9.167719 8.181086 0.998497 -0.001115 0.004107 0.998046
1.818914 9.167719 0.998712 -0.004275 -0.000982 0.998322
1.818914 0.832281 0.998805 0.000537 -0.003044 0.998477
9.167719 1.818914 0.998738 0.003089 0.000239 0.998383
3.463676 3.544713 0.965535 0.127629 -0.128378 0.975407
6.451599 3.476202 0.965575 0.128463 0.127258 0.975391
6.541885 6.463657 0.966050 -0.124917 0.130015 0.975641
3.536343 6.541885 0.965915 -0.124823 -0.128595 0.975309
6.082425 9.199252 0.988526 -0.014460 0.005573 0.985003
6.086556 0.792692 0.988134 0.016674 0.004163 0.984328
9.199904 6.085104 0.987917 -0.004545 0.017705 0.984088
0.800096 6.085104 0.988495 -0.005105 -0.014136 0.984989
0.794928 3.342076 0.991238 0.005010 -0.013785 0.988479
3.345178 0.791766 0.991849 0.009143 -0.006158 0.989332
9.208234 3.345178 0.991804 0.006727 0.008894 0.989281
3.347158 9.244216 0.991190 -0.013004 -0.004653 0.988424
1.752570 4.356715 0.982672 0.013654 -0.071170 0.981760
4.356715 8.247430 0.982639 -0.072830 -0.014341 0.981798
4.356715 1.752570 0.983519 0.070285 -0.013928 0.982952
8.245118 4.347028 0.984411 0.013750 0.068016 0.983767
1.986097 5.728875 0.981514 -0.020348 -0.087791 0.982450
5.732996 8.081034 0.983161 -0.079491 0.020210 0.983554
5.677314 1.825135 0.982276 0.077267 0.016815 0.981787
8.192773 5.647287 0.982501 -0.015537 0.073839 0.981650
3.344457 7.749750 0.984239 -0.071856 -0.042638 0.985306
6.667520 2.202512 0.984902 0.067267 0.039741 0.985521
2.212070 3.332127 0.984762 0.039831 -0.067604 0.985310
4.277109 4.585078 0.919255 0.079337 -0.139076 0.942509
5.414922 4.277109 0.919102 0.140122 0.078246 0.942609
5.722891 5.414922 0.918505 -0.076347 0.140285 0.942173
4.585078 5.722891 0.919023 -0.136846 -0.078575 0.942490
6.777775 0.711876 0.991817 0.010855 0.004062 0.989067
9.302383 6.793667 0.991986 -0.004190 0.010556 0.989316
0.714571 6.796938 0.992762 -0.005154 -0.006202 0.990378
6.789939 9.289557 0.992788 -0.005812 0.005292 0.990395
7.506513 4.384500 0.975903 0.029406 0.132109 0.980023
4.364981 2.484274 0.975698 0.132188 -0.031193 0.979856
6.124735 4.076293 0.945775 0.127899 0.158697 0.961617
5.893394 6.168403 0.945370 -0.163535 0.123970 0.961061
4.083768 3.849609 0.947276 0.162288 -0.122531 0.962589
3.881000 5.925573 0.945572 -0.126934 -0.157320 0.961117
2.576605 5.548775 0.973820 -0.031783 -0.146778 0.979910
5.548775 7.423395 0.973991 -0.146344 0.032808 0.979646
7.835482 6.563091 0.984769 -0.036773 0.069082 0.985451
4.949677 9.346282 0.985603 -0.016608 -0.000319 0.980950
4.949677 0.653718 0.985509 0.016047 -0.000464 0.980781
0.653718 4.949677 0.985601 -0.000159 -0.016056 0.980989
9.352500 4.948916 0.985535 0.000195 0.016537 0.980786
6.788684 7.940525 0.987841 -0.050235 0.032241 0.987917
4.954335 8.391499 0.982679 -0.068751 -0.000050 0.981387
1.603078 4.951324 0.982755 0.000770 -0.067428 0.981533
4.950523 1.597518 0.982768 0.067311 -0.000096 0.981295
8.413216 4.946289 0.982933 0.000144 0.062839 0.980867
7.006639 1.566909 0.990958 0.027944 0.014699 0.989434
1.573411 2.989054 0.991129 0.015167 -0.028150 0.989678
2.966602 8.414829 0.991031 -0.030169 -0.015965 0.989793
1.611194 7.676484 0.995127 -0.012743 -0.011837 0.994269
8.388618 7.702039 0.994587 -0.009548 0.015426 0.993547
2.318491 1.590831 0.995165 0.011553 -0.011870 0.994322
8.388618 2.297961 0.995205 0.012303 0.010994 0.994399
0.613041 3.911757 0.988329 0.003385 -0.013422 0.984457
3.908297 9.379108 0.988257 -0.013862 -0.003898 0.984402
9.402418 3.916470 0.988684 0.004496 0.009976 0.984898
3.913083 0.595392 0.988903 0.008936 -0.003993 0.985178
5.454737 2.598152 0.972192 0.149094 0.030020 0.977317
2.609916 4.561020 0.971927 0.029921 -0.151643 0.977216
7.395772 5.446024 0.972083 -0.028607 0.151331 0.977420
4.380613 6.985827 0.964194 -0.176361 -0.054556 0.973627
9.419976 9.409597 1.001286 0.000422 0.000740 1.001813
0.588320 9.411680 1.001292 -0.000926 0.000339 1.001821
0.588320 0.588320 1.001287 -0.000474 -0.000883 1.001815
9.411680 0.588320 1.001267 0.000762 -0.000518 1.001787
9.420990 5.547385 0.986253 -0.002506 0.014725 0.981656
5.548259 0.603021 0.986258 0.014467 0.002234 0.981679
0.575632 5.542564 0.986502 -0.002481 -0.011551 0.982004
5.542564 9.424368 0.986560 -0.011993 0.002396 0.982047
0.578352 7.663371 0.997215 -0.003078 -0.000651 0.996253
0.601287 2.343094 0.996852 0.002131 -0.005558 0.995790
7.659823 0.598707 0.996818 0.004985 0.001933 0.995719
2.345500 0.605869 0.997228 0.000549 -0.002989 0.996299
9.421640 7.663382 0.996916 -0.001720 0.004588 0.995847
7.659711 9.422696 0.997222 -0.000273 0.003183 0.996260
2.342422 9.432462 0.996962 -0.005124 -0.001544 0.995922
9.417988 2.337141 0.997262 0.003175 0.000197 0.996340
7.710894 1.562782 0.994861 0.013803 0.008697 0.993774
2.273789 8.437116 0.994911 -0.015382 -0.009103 0.993949
7.724230 8.438471 0.995422 -0.009711 0.011543 0.994567
1.562782 2.289106 0.994933 0.009168 -0.014441 0.993886
6.969839 8.514170 0.991869 -0.020850 0.014853 0.990371
8.519072 3.024369 0.991953 0.015428 0.021498 0.990672
8.505786 6.967655 0.990866 -0.013950 0.026720 0.989245
1.475297 6.966478 0.991764 -0.014696 -0.022362 0.990357
3.038824 1.486495 0.991971 0.022670 -0.015183 0.990769
3.499450 7.113092 0.976672 -0.111824 -0.081667 0.981744
6.506635 2.893892 0.976191 0.110791 0.081134 0.981174
7.106108 6.506635 0.976258 -0.082103 0.112690 0.981539
3.123327 3.988997 0.966219 0.087863 -0.156715 0.974938
3.650501 3.004195 0.974107 0.126311 -0.083015 0.980279
6.995805 3.650501 0.974262 0.082183 0.124838 0.980423
6.508220 7.027643 0.975194 -0.117783 0.086747 0.981358
2.971550 6.507206 0.975607 -0.083363 -0.117987 0.981385
1.361038 5.861407 0.986195 -0.010153 -0.039883 0.983903
5.858422 8.622577 0.986343 -0.040533 0.011204 0.984007
6.009468 3.122928 0.965902 0.156404 0.087217 0.974835
2.892236 3.492793 0.976389 0.082014 -0.111744 0.981487
6.876653 5.996596 0.965960 -0.085867 0.158837 0.975014
0.554409 8.665248 1.000352 -0.001460 0.000697 1.000528
9.445591 1.334752 1.000316 0.001244 -0.000998 1.000479
8.657701 0.548021 1.000235 0.001841 0.000109 1.000364
8.662141 9.427069 1.000323 0.000855 0.001417 1.000489
0.572931 1.337859 1.000254 0.000167 -0.002118 1.000394
1.317810 0.559097 1.000411 -0.000833 -0.001255 1.000611
9.440903 8.682190 1.000317 0.000012 0.001776 1.000477
1.333268 9.448243 1.000346 -0.002120 -0.000059 1.000518
3.609008 4.879304 0.942526 0.020343 -0.200555 0.958963
5.113113 3.596009 0.942187 0.200869 0.022131 0.959086
6.403991 5.113113 0.941636 -0.020790 0.202184 0.958855
4.886887 6.403991 0.941781 -0.202053 -0.018164 0.958779
2.033337 3.881986 0.982928 0.028977 -0.078773 0.983265
4.496082 7.539687 0.974170 -0.139318 -0.027185 0.978366
3.875018 7.976184 0.982304 -0.081668 -0.030237 0.982939
5.878627 1.271920 0.986002 0.037057 0.009444 0.982976
8.682901 5.892480 0.985974 -0.009632 0.038952 0.983093
2.562060 2.481019 0.989075 0.039929 -0.040344 0.989278
2.503162 7.433752 0.988887 -0.043070 -0.042042 0.989458
7.494277 2.573080 0.988678 0.041323 0.039535 0.988865
7.496118 7.428934 0.989032 -0.038601 0.041542 0.989440
2.429604 6.861623 0.985336 -0.048249 -0.067589 0.986789
8.013200 3.331189 0.987420 0.031167 0.052535 0.987628
3.343625 2.028147 0.987073 0.056124 -0.031796 0.987423
6.151421 2.027401 0.983110 0.078313 0.030662 0.983528
2.905721 9.494866 0.994039 -0.007072 -0.002490 0.991966
2.872163 0.529272 0.994749 0.001980 -0.003737 0.992940
9.470728 2.872163 0.994632 0.003957 0.001621 0.992774
0.505134 2.905721 0.993949 0.002911 -0.007172 0.991815
1.239513 8.520468 0.999066 -0.003964 -0.001041 0.998842
1.239513 1.479532 0.998942 0.001460 -0.004132 0.998686
8.539782 1.263805 0.998922 0.003946 0.001118 0.998657
8.529481 8.755385 0.999030 -0.000762 0.003731 0.998797
4.597010 3.539246 0.947247 0.197467 -0.054083 0.962442
3.542377 5.399796 0.946828 -0.052503 -0.197676 0.962114
6.464844 4.607919 0.946360 0.054861 0.199532 0.961813
5.399796 6.457623 0.946677 -0.197633 0.054671 0.962505
2.097333 7.910378 0.993893 -0.019817 -0.016334 0.993192
7.912330 2.079566 0.994016 0.018370 0.015406 0.993276
2.089622 2.097333 0.994046 0.016253 -0.018870 0.993339
7.876455 7.906845 0.993591 -0.016482 0.019785 0.992856
1.113913 3.893214 0.987332 0.007772 -0.028966 0.984237
3.893214 8.886087 0.987122 -0.030339 -0.008522 0.984112
8.866770 3.891927 0.988370 0.009531 0.025469 0.985594
3.893214 1.113913 0.988281 0.024674 -0.008377 0.985425
3.894803 1.986444 0.984080 0.074885 -0.027617 0.984672
8.013556 3.894803 0.984222 0.026519 0.073630 0.984735
4.521382 5.184849 0.908702 -0.036069 -0.106236 0.934976
4.815151 4.521382 0.908832 0.107483 -0.038670 0.935116
5.478618 4.815151 0.908489 0.040485 0.106370 0.934905
5.184849 5.478618 0.908215 -0.104039 0.039042 0.934676
1.945153 6.698260 0.987826 -0.028197 -0.050200 0.987594
3.076852 2.447822 0.986099 0.063693 -0.048574 0.987677
7.552178 3.076852 0.986070 0.050135 0.062971 0.987759
9.508904 4.468856 0.986654 0.002066 0.010202 0.982031
4.468856 0.491096 0.986639 0.009587 -0.002345 0.982041
0.508374 4.481242 0.986304 0.001462 -0.012012 0.981667
4.481242 9.491626 0.986220 -0.012521 -0.002060 0.981548
6.805331 7.473325 0.984110 -0.074052 0.054702 0.986412
3.135002 4.528953 0.960132 0.048639 -0.187019 0.970313
5.523777 3.127075 0.960447 0.184438 0.055824 0.970765
6.885019 5.522359 0.960572 -0.053568 0.185609 0.971080
3.913694 6.853052 0.966541 -0.151618 -0.092845 0.975112
7.938678 6.125709 0.982328 -0.031240 0.080407 0.982704
8.707310 1.966045 0.997404 0.006043 0.003379 0.996760
1.961032 1.296416 0.997535 0.003999 -0.006074 0.996954
8.707310 8.033955 0.997123 -0.003451 0.007473 0.996384
1.314838 8.017406 0.997324 -0.006920 -0.004239 0.996674
8.917938 4.819150 0.985207 0.001438 0.032286 0.981419
4.823748 1.081129 0.985188 0.031929 -0.001702 0.981484
1.115859 4.841229 0.984768 0.000972 -0.035234 0.981285
4.823748 8.918871 0.984646 -0.034031 -0.001264 0.980893
6.706978 1.172780 0.990554 0.020646 0.008389 0.988054
1.071692 6.477770 0.990321 -0.008532 -0.017808 0.987779
6.477770 8.928308 0.990402 -0.017162 0.008926 0.987863
8.923406 6.478428 0.989207 -0.008370 0.022590 0.986309
7.540906 6.955202 0.984847 -0.048242 0.063299 0.985794
1.996511 6.217602 0.984678 -0.028491 -0.071408 0.985175
6.200645 8.046683 0.984711 -0.067025 0.028741 0.984877
7.184496 0.453091 0.994555 0.005671 0.002504 0.992591
7.188547 9.517184 0.994967 -0.001156 0.003596 0.993180
0.484057 7.185697 0.994902 -0.003602 -0.001573 0.993108
9.509179 7.179752 0.994404 -0.002539 0.006005 0.992422
2.243142 4.329689 0.978249 0.028221 -0.112604 0.980450
1.563551 5.392155 0.983641 -0.006813 -0.060382 0.982110
5.380570 8.433042 0.983399 -0.061395 0.007130 0.981640
1.899322 8.710877 0.997500 -0.007133 -0.003024 0.996834
5.985668 7.197892 0.972710 -0.143847 0.063220 0.979529
2.793541 6.005944 0.972487 -0.062887 -0.142203 0.978779
4.557572 2.947922 0.965076 0.178979 -0.036672 0.974161
7.050742 4.566475 0.964652 0.038174 0.180714 0.973987
0.462107 6.400232 0.990301 -0.003490 -0.004732 0.986889
6.396386 0.455751 0.990066 0.008587 0.002892 0.986527
6.396324 9.543302 0.990385 -0.004607 0.003740 0.986987
9.551437 6.395914 0.990015 -0.003266 0.008766 0.986483
8.042193 8.749542 0.997543 -0.003027 0.006036 0.996928
1.269967 1.930090 0.997349 0.003651 -0.007292 0.996650
8.069910 1.269967 0.997318 0.006817 0.003222 0.996605
2.447242 2.984972 0.986056 0.048338 -0.060222 0.987164
7.051707 2.477988 0.986190 0.058832 0.047926 0.987273
2.972482 7.549480 0.985811 -0.063202 -0.049172 0.987277
8.942736 8.563000 0.999401 -0.000421 0.003256 0.999272
8.942736 1.437000 0.999472 0.002745 0.000166 0.999369
1.456189 8.887251 0.999296 -0.003739 -0.000797 0.999130
1.437000 1.057264 0.999518 0.000388 -0.002843 0.999436
3.279908 8.783152 0.990356 -0.024418 -0.010107 0.988199
1.239216 3.282103 0.990328 0.010058 -0.023909 0.988028
5.719832 2.266628 0.977873 0.114314 0.030810 0.980392
4.900649 2.585013 0.971658 0.154100 -0.005228 0.977041
7.403891 4.896662 0.971717 0.005771 0.156573 0.977492
5.415863 7.001904 0.964604 -0.181913 0.037619 0.974015
3.007705 5.412278 0.964127 -0.034986 -0.182071 0.974070
2.622447 5.089938 0.971305 -0.002223 -0.159390 0.977733
5.117097 7.377813 0.971700 -0.158146 0.009117 0.977374
4.023465 2.769108 0.973086 0.139565 -0.058040 0.978867
7.281951 3.981374 0.975006 0.056199 0.132484 0.980483
7.885313 4.588281 0.979756 0.012618 0.103722 0.981054
4.571764 2.129052 0.979392 0.104550 -0.014664 0.980917
7.802836 5.717839 0.979150 -0.027180 0.106010 0.980930
5.862943 7.713344 0.979250 -0.108628 0.034989 0.982002
2.328140 5.899583 0.979326 -0.035869 -0.109262 0.982347
6.296888 6.103494 0.953153 -0.134289 0.151363 0.966776
3.486552 6.110734 0.960126 -0.109435 -0.158425 0.971377
3.651768 3.869601 0.955384 0.131169 -0.147827 0.968039
3.847435 6.353301 0.955470 -0.145191 -0.132229 0.967482
3.863065 3.525349 0.959489 0.157212 -0.114100 0.971084
6.133638 3.683832 0.955042 0.149238 0.133011 0.968343
6.527745 3.885357 0.960251 0.110344 0.159580 0.971866
6.140262 6.503135 0.960109 -0.154672 0.116557 0.971480
9.560763 8.070237 0.998702 -0.000798 0.002750 0.998253
1.945928 9.583950 0.998731 -0.003253 -0.000708 0.998300
0.423197 1.941888 0.998687 0.000966 -0.003246 0.998233
8.058112 0.423197 0.998665 0.002872 0.000904 0.998198
0.423197 8.058112 0.998860 -0.001829 0.000723 0.998467
8.056396 9.581679 0.998853 0.001036 0.001880 0.998456
1.929763 0.439237 0.998948 -0.000905 -0.001696 0.998600
9.560763 1.929763 0.998876 0.001828 -0.001114 0.998500
3.536225 9.583636 0.990531 -0.008584 -0.003326 0.987242
0.416364 3.536225 0.990506 0.003209 -0.008602 0.987178
3.514136 0.428019 0.991087 0.003995 -0.003908 0.987978
9.571981 3.514136 0.991058 0.004335 0.003905 0.987926
5.358107 1.549559 0.983483 0.060876 0.007166 0.981647
8.426129 5.349019 0.983104 -0.007068 0.061559 0.981212
2.201879 8.999626 0.996932 -0.007297 -0.002768 0.996024
8.792975 3.362698 0.990894 0.011632 0.019701 0.988904
3.328600 1.215652 0.991216 0.019694 -0.010924 0.989282
4.534751 8.673828 0.984480 -0.046931 -0.005657 0.981713
1.368339 4.521314 0.984456 0.005992 -0.047126 0.981805
4.558822 1.340132 0.984932 0.044485 -0.005521 0.982247
8.625241 4.504819 0.985009 0.006767 0.045212 0.982260
9.588020 5.930370 0.987630 -0.002533 0.009767 0.983244
5.922865 9.574126 0.988106 -0.006672 0.002945 0.983942
5.930370 0.411980 0.987661 0.009327 0.002238 0.983274
0.425874 5.922865 0.988126 -0.002960 -0.006515 0.983999
8.520577 3.999901 0.986916 0.013233 0.042697 0.985023
1.484976 3.986636 0.985719 0.012983 -0.047281 0.983615
3.975842 1.493756 0.986493 0.044415 -0.014043 0.984679