TITLE = "Example: 2D Finite Element Data"
VARIABLES = "X", "Y", "rho", "u", "v", "p"
ZONE NODES=3423, ELEMENTS = 6644, DATAPACKING = POINT, ZONETYPE = FEQUADRILATERAL, SOLUTIONTIME=6.286988e+00
0.000000 0.000000 0.977931 -0.000074 0.000121 0.969243
10.000000 0.000000 0.977937 -0.000031 0.000123 0.969251
10.000000 10.000000 0.977945 -0.000030 0.000163 0.969262
0.000000 10.000000 0.977938 -0.000073 0.000159 0.969253
0.200000 0.000000 0.978058 -0.000112 0.000126 0.969419
0.400000 0.000000 0.978415 -0.000140 0.000115 0.969915
0.600000 0.000000 0.978970 -0.000135 0.000064 0.970685
0.800000 0.000000 0.979726 -0.000095 0.000051 0.971734
1.000000 0.000000 0.980702 0.000003 -0.000010 0.973090
1.200000 0.000000 0.981805 0.000090 -0.000043 0.974624
1.400000 0.000000 0.982949 0.000250 -0.000127 0.976214
1.600000 0.000000 0.984210 0.000466 -0.000267 0.977968
1.800000 0.000000 0.985692 0.000663 -0.000293 0.980032
2.000000 0.000000 0.987025 0.000933 -0.000334 0.981889
2.200000 0.000000 0.988290 0.001293 -0.000516 0.983653
2.400000 0.000000 0.989757 0.001568 -0.000545 0.985701
2.600000 0.000000 0.991041 0.001834 -0.000532 0.987496
2.800000 0.000000 0.992047 0.002011 -0.000664 0.988904
3.000000 0.000000 0.992971 0.002203 -0.000736 0.990200
3.200000 0.000000 0.993744 0.002363 -0.000916 0.991287
3.400000 0.000000 0.994491 0.002475 -0.001112 0.992340
3.600000 0.000000 0.995176 0.002426 -0.001209 0.993308
3.800000 0.000000 0.995612 0.002183 -0.001100 0.993925
4.000000 0.000000 0.995978 0.002210 -0.001236 0.994446
4.200000 0.000000 0.996268 0.001913 -0.001161 0.994858
4.400000 0.000000 0.996379 0.001734 -0.001059 0.995020
4.600000 0.000000 0.996486 0.001415 -0.000819 0.995175
4.800000 0.000000 0.996623 0.001064 -0.000600 0.995369
5.000000 0.000000 0.996645 0.000633 -0.000416 0.995402
5.200000 0.000000 0.996668 0.000429 -0.000291 0.995435
5.400000 0.000000 0.996594 0.000308 -0.000316 0.995327
5.600000 0.000000 0.996529 -0.000452 -0.000096 0.995221
5.800000 0.000000 0.996274 -0.000762 0.000077 0.994854
6.000000 0.000000 0.995971 -0.001075 0.000233 0.994422
6.200000 0.000000 0.995633 -0.001292 0.000332 0.993943
6.400000 0.000000 0.995170 -0.001312 0.000266 0.993289
6.600000 0.000000 0.994574 -0.001655 0.000343 0.992446
6.800000 0.000000 0.993819 -0.001762 0.000385 0.991385
7.000000 0.000000 0.993021 -0.001825 0.000514 0.990264
7.200000 0.000000 0.992115 -0.001776 0.000515 0.988995
7.400000 0.000000 0.991025 -0.001653 0.000490 0.987471
7.600000 0.000000 0.989889 -0.001472 0.000458 0.985885
7.800000 0.000000 0.988683 -0.001294 0.000498 0.984200
8.000000 0.000000 0.987286 -0.000959 0.000377 0.982253
8.200000 0.000000 0.985758 -0.000664 0.000211 0.980123
8.400000 0.000000 0.984268 -0.000526 0.000109 0.978049
8.600000 0.000000 0.983010 -0.000336 0.000154 0.976299
8.800000 0.000000 0.981881 -0.000190 0.000160 0.974729
9.000000 0.000000 0.980799 -0.000100 0.000140 0.973226
9.200000 0.000000 0.979811 -0.000018 0.000128 0.971853
9.400000 0.000000 0.979006 0.000026 0.000088 0.970735
9.600000 0.000000 0.978438 0.000038 0.000117 0.969947
9.800000 0.000000 0.978073 0.000007 0.000128 0.969440
10.000000 0.200000 0.978058 -0.000034 0.000085 0.969419
10.000000 0.400000 0.978402 -0.000022 0.000048 0.969897
10.000000 0.600000 0.978941 0.000031 0.000029 0.970645
10.000000 0.800000 0.979676 0.000060 0.000028 0.971665
10.000000 1.000000 0.980601 0.000177 0.000061 0.972950
10.000000 1.200000 0.981676 0.000235 0.000140 0.974445
10.000000 1.400000 0.982826 0.000302 0.000228 0.976044
10.000000 1.600000 0.984079 0.000446 0.000388 0.977786
10.000000 1.800000 0.985568 0.000487 0.000513 0.979859
10.000000 2.000000 0.986905 0.000556 0.000730 0.981722
10.000000 2.200000 0.988183 0.000766 0.001040 0.983504
10.000000 2.400000 0.989675 0.000827 0.001255 0.985588
10.000000 2.600000 0.990985 0.000841 0.001482 0.987418
10.000000 2.800000 0.992014 0.000968 0.001631 0.988858
10.000000 3.000000 0.992964 0.001020 0.001801 0.990189
10.000000 3.200000 0.993760 0.001175 0.001972 0.991308
10.000000 3.400000 0.994525 0.001327 0.002143 0.992386
10.000000 3.600000 0.995231 0.001334 0.002203 0.993383
10.000000 3.800000 0.995680 0.001120 0.002069 0.994018
10.000000 4.000000 0.996048 0.001167 0.002243 0.994541
10.000000 4.200000 0.996334 0.000936 0.002086 0.994949
10.000000 4.400000 0.996423 0.000717 0.002001 0.995078
10.000000 4.600000 0.996510 0.000382 0.001734 0.995205
10.000000 4.800000 0.996624 0.000116 0.001376 0.995370
10.000000 5.000000 0.996648 -0.000033 0.001009 0.995406
10.000000 5.200000 0.996653 -0.000094 0.000866 0.995413
10.000000 5.400000 0.996540 -0.000022 0.000687 0.995252
10.000000 5.600000 0.996443 -0.000198 -0.000071 0.995104
10.000000 5.800000 0.996195 -0.000294 -0.000400 0.994747
10.000000 6.000000 0.995889 -0.000382 -0.000754 0.994311
10.000000 6.200000 0.995547 -0.000416 -0.001043 0.993827
10.000000 6.400000 0.995084 -0.000297 -0.001158 0.993173
10.000000 6.600000 0.994479 -0.000324 -0.001597 0.992316
10.000000 6.800000 0.993729 -0.000374 -0.001785 0.991260
10.000000 7.000000 0.992935 -0.000435 -0.001873 0.990146
10.000000 7.200000 0.992007 -0.000349 -0.001795 0.988846
10.000000 7.400000 0.990928 -0.000317 -0.001683 0.987337
10.000000 7.600000 0.989799 -0.000278 -0.001555 0.985759
10.000000 7.800000 0.988586 -0.000303 -0.001385 0.984066
10.000000 8.000000 0.987194 -0.000177 -0.001063 0.982125
10.000000 8.200000 0.985684 -0.000020 -0.000757 0.980021
10.000000 8.400000 0.984219 0.000075 -0.000570 0.977981
10.000000 8.600000 0.982967 0.000028 -0.000336 0.976239
10.000000 8.800000 0.981832 0.000033 -0.000144 0.974661
10.000000 9.000000 0.980733 0.000075 -0.000024 0.973133
10.000000 9.200000 0.979763 0.000047 0.000100 0.971786
10.000000 9.400000 0.979009 0.000039 0.000160 0.970739
10.000000 9.600000 0.978451 -0.000014 0.000195 0.969964
10.000000 9.800000 0.978083 -0.000033 0.000190 0.969454
9.800000 10.000000 0.978083 0.000005 0.000146 0.969454
9.600000 10.000000 0.978447 0.000034 0.000137 0.969960
9.400000 10.000000 0.979018 0.000018 0.000167 0.970752
9.200000 10.000000 0.979820 -0.000026 0.000183 0.971865
9.000000 10.000000 0.980800 -0.000113 0.000239 0.973228
8.800000 10.000000 0.981879 -0.000204 0.000309 0.974727
8.600000 10.000000 0.983005 -0.000359 0.000433 0.976293
8.400000 10.000000 0.984259 -0.000578 0.000610 0.978036
8.200000 10.000000 0.985731 -0.000767 0.000654 0.980086
8.000000 10.000000 0.987256 -0.001104 0.000657 0.982210
7.800000 10.000000 0.988651 -0.001464 0.000666 0.984156
7.600000 10.000000 0.989847 -0.001687 0.000801 0.985825
7.400000 10.000000 0.990994 -0.001923 0.000867 0.987428
7.200000 10.000000 0.992068 -0.002108 0.000975 0.988929
7.000000 10.000000 0.993017 -0.002255 0.000969 0.990259
6.800000 10.000000 0.993812 -0.002417 0.000990 0.991374
6.600000 10.000000 0.994490 -0.002418 0.000943 0.992328
6.400000 10.000000 0.995119 -0.002484 0.000996 0.993219
6.200000 10.000000 0.995646 -0.002194 0.000830 0.993961
6.000000 10.000000 0.995965 -0.002094 0.000783 0.994415
5.800000 10.000000 0.996227 -0.001945 0.000637 0.994790
5.600000 10.000000 0.996420 -0.001738 0.000439 0.995071
5.400000 10.000000 0.996572 -0.001767 0.000459 0.995298
5.200000 10.000000 0.996655 -0.001083 0.000246 0.995418
5.000000 10.000000 0.996691 -0.000748 0.000130 0.995467
4.800000 10.000000 0.996612 -0.000534 0.000040 0.995357
4.600000 10.000000 0.996537 -0.000198 -0.000160 0.995249
4.400000 10.000000 0.996354 0.000197 -0.000393 0.994989
4.200000 10.000000 0.996182 0.000597 -0.000584 0.994744
4.000000 10.000000 0.995965 0.000789 -0.000564 0.994433
3.800000 10.000000 0.995659 0.001193 -0.000670 0.993993
3.600000 10.000000 0.995147 0.001257 -0.000569 0.993270
3.400000 10.000000 0.994541 0.001475 -0.000360 0.992413
3.200000 10.000000 0.993806 0.001693 -0.000277 0.991375
3.000000 10.000000 0.992985 0.001739 -0.000275 0.990220
2.800000 10.000000 0.992096 0.001651 -0.000227 0.988973
2.600000 10.000000 0.991064 0.001518 -0.000211 0.987529
2.400000 10.000000 0.989794 0.001259 -0.000030 0.985754
2.200000 10.000000 0.988352 0.001101 0.000111 0.983740
2.000000 10.000000 0.987068 0.000829 0.000038 0.981949
1.800000 10.000000 0.985721 0.000560 0.000141 0.980072
1.600000 10.000000 0.984219 0.000405 0.000217 0.977981
1.400000 10.000000 0.982956 0.000214 0.000143 0.976225
1.200000 10.000000 0.981827 0.000073 0.000108 0.974654
1.000000 10.000000 0.980748 -0.000008 0.000104 0.973154
0.800000 10.000000 0.979765 -0.000081 0.000104 0.971790
0.600000 10.000000 0.978970 -0.000124 0.000138 0.970686
0.400000 10.000000 0.978416 -0.000138 0.000123 0.969916
0.200000 10.000000 0.978065 -0.000110 0.000139 0.969429
0.000000 9.800000 0.978076 -0.000052 0.000184 0.969444
0.000000 9.600000 0.978447 -0.000029 0.000187 0.969959
0.000000 9.400000 0.979005 -0.000049 0.000153 0.970733
0.000000 9.200000 0.979750 -0.000046 0.000093 0.971768
0.000000 9.000000 0.980706 -0.000111 -0.000041 0.973096
0.000000 8.800000 0.981809 -0.000192 -0.000183 0.974628
0.000000 8.600000 0.982967 -0.000278 -0.000379 0.976240
0.000000 8.400000 0.984212 -0.000439 -0.000637 0.977971
0.000000 8.200000 0.985660 -0.000475 -0.000872 0.979987
0.000000 8.000000 0.987171 -0.000456 -0.001219 0.982093
0.000000 7.800000 0.988557 -0.000450 -0.001561 0.984025
0.000000 7.600000 0.989759 -0.000589 -0.001779 0.985703
0.000000 7.400000 0.990900 -0.000692 -0.001976 0.987297
0.000000 7.200000 0.991968 -0.000845 -0.002145 0.988792
0.000000 7.000000 0.992926 -0.000835 -0.002283 0.990132
0.000000 6.800000 0.993712 -0.000877 -0.002411 0.991236
0.000000 6.600000 0.994396 -0.000855 -0.002343 0.992199
0.000000 6.400000 0.995035 -0.000936 -0.002320 0.993104
0.000000 6.200000 0.995561 -0.000859 -0.001938 0.993847
0.000000 6.000000 0.995887 -0.000891 -0.001771 0.994311
0.000000 5.800000 0.996157 -0.000832 -0.001581 0.994696
0.000000 5.600000 0.996358 -0.000715 -0.001339 0.994987
0.000000 5.400000 0.996532 -0.000790 -0.001330 0.995245
0.000000 5.200000 0.996634 -0.000634 -0.000659 0.995389
0.000000 5.000000 0.996676 -0.000583 -0.000366 0.995447
0.000000 4.800000 0.996625 -0.000537 -0.000196 0.995375
0.000000 4.600000 0.996575 -0.000321 0.000088 0.995300
0.000000 4.400000 0.996409 -0.000020 0.000405 0.995064
0.000000 4.200000 0.996248 0.000279 0.000704 0.994833
0.000000 4.000000 0.996037 0.000383 0.000751 0.994530
0.000000 3.800000 0.995729 0.000633 0.001025 0.994088
0.000000 3.600000 0.995205 0.000620 0.000975 0.993348
0.000000 3.400000 0.994585 0.000522 0.001104 0.992471
0.000000 3.200000 0.993828 0.000524 0.001279 0.991403
0.000000 3.000000 0.992977 0.000569 0.001324 0.990207
0.000000 2.800000 0.992062 0.000549 0.001261 0.988926
0.000000 2.600000 0.991005 0.000539 0.001161 0.987447
0.000000 2.400000 0.989711 0.000333 0.000946 0.985638
0.000000 2.200000 0.988233 0.000142 0.000861 0.983574
0.000000 2.000000 0.986941 0.000176 0.000639 0.981772
0.000000 1.800000 0.985602 0.000051 0.000438 0.979906
0.000000 1.600000 0.984108 -0.000055 0.000351 0.977827
0.000000 1.400000 0.982858 0.000013 0.000213 0.976088
0.000000 1.200000 0.981743 0.000041 0.000117 0.974538
0.000000 1.000000 0.980682 0.000024 0.000077 0.973063
0.000000 0.800000 0.979717 -0.000003 0.000048 0.971723
0.000000 0.600000 0.978939 -0.000053 0.000042 0.970642
0.000000 0.400000 0.978397 -0.000045 0.000049 0.969890
0.000000 0.200000 0.978054 -0.000059 0.000084 0.969414
5.000000 5.000000 0.861635 0.002198 -0.000627 0.888584
2.940722 2.920216 0.987620 0.075304 -0.075727 0.990141
7.069927 2.933321 0.987739 0.077570 0.074986 0.990492
7.071429 7.071429 0.987363 -0.073304 0.077463 0.989976
2.928571 7.071429 0.987956 -0.075023 -0.074558 0.990564
4.989590 2.222658 0.987936 0.125038 -0.004820 0.992016
2.193234 5.003669 0.988101 -0.005169 -0.123843 0.992298
7.803136 5.000000 0.988287 0.006100 0.120477 0.991881
5.006807 7.799705 0.987761 -0.123887 0.006635 0.991386
1.705584 8.274335 0.987923 -0.004875 -0.001935 0.983269
8.287013 8.277499 0.987842 -0.001780 0.004672 0.983165
1.708370 1.727069 0.987791 0.002195 -0.004551 0.983090
8.299442 1.725606 0.987781 0.004291 0.001753 0.983058
3.609680 4.312330 0.951399 0.126096 -0.247302 0.966331
5.723378 3.626711 0.952065 0.247725 0.132339 0.967435
6.363062 5.703280 0.951079 -0.129410 0.251277 0.966562
4.312554 6.400702 0.951397 -0.244701 -0.130449 0.966194
8.486436 3.575492 0.992702 0.016097 0.028893 0.991264
1.543733 6.400372 0.992450 -0.015216 -0.030883 0.990942
6.373166 1.560539 0.993037 0.029143 0.007670 0.991926
6.400143 8.449516 0.992443 -0.030922 0.017072 0.990973
1.538009 3.604160 0.992726 0.007712 -0.028638 0.991407
3.580387 8.438610 0.992564 -0.030898 -0.009250 0.991555
3.603771 1.542119 0.992659 0.030587 -0.015855 0.991281
8.457881 6.396229 0.992777 -0.007566 0.028053 0.991492
4.182479 3.186061 0.970865 0.216648 -0.099698 0.981016
6.811263 4.185420 0.971418 0.099543 0.218745 0.982135
5.814580 6.811263 0.970223 -0.223019 0.098096 0.980929
3.184519 5.825914 0.971744 -0.099881 -0.215592 0.982065
5.343050 1.114355 0.995065 0.022387 -0.001898 0.994142
8.874387 5.349281 0.994735 0.001423 0.022745 0.993684
5.349281 8.874387 0.994612 -0.025424 0.006078 0.993584
1.125613 5.349281 0.994691 -0.006535 -0.024966 0.993789
7.395157 8.902338 0.990435 -0.005567 0.006189 0.986781
8.901342 7.398430 0.990620 -0.000212 0.003809 0.987076
2.639742 8.913104 0.990954 -0.004021 0.000050 0.987543
1.085431 7.398433 0.990319 -0.005489 -0.005714 0.986624
7.376715 1.100222 0.990915 0.003908 0.000336 0.987476
1.090401 2.599523 0.990637 0.000422 -0.004115 0.987081
2.611724 1.078164 0.990459 0.005725 -0.005544 0.986849
8.908863 2.610143 0.990314 0.005722 0.005065 0.986626
2.588563 3.955784 0.985362 0.056248 -0.136990 0.990838
6.013385 2.597351 0.985740 0.137337 0.054398 0.991315
3.974513 7.432394 0.984604 -0.138968 -0.053895 0.990235
7.415700 6.058604 0.985086 -0.055082 0.134595 0.990200
4.058309 5.244375 0.912496 -0.067626 -0.254581 0.932716
4.755625 4.058309 0.912669 0.254327 -0.069749 0.933174
5.941691 4.755625 0.912108 0.071138 0.255050 0.932559
5.244375 5.941691 0.911739 -0.253847 0.069649 0.932122
0.982144 8.979376 0.982802 -0.000802 0.000284 0.976012
8.980033 1.005597 0.982832 0.000760 -0.000348 0.976055
9.021911 9.019292 0.982637 0.000446 0.000733 0.975782
0.980708 0.978089 0.982598 -0.000301 -0.000578 0.975728
4.390055 9.028520 0.995197 -0.016799 0.000731 0.994080
0.971480 4.390055 0.995289 -0.001581 -0.016362 0.994181
9.028520 4.390055 0.995043 0.006032 0.018004 0.993701
4.390055 0.971480 0.995052 0.017947 -0.006183 0.993801
7.395155 7.961636 0.990202 -0.020334 0.019818 0.987658
2.604845 7.961636 0.990236 -0.023053 -0.015175 0.987807
7.386550 2.029987 0.990257 0.021626 0.013698 0.987683
2.029987 2.613450 0.990250 0.014158 -0.022119 0.987687
7.994465 7.205720 0.990512 -0.015853 0.025622 0.988367
2.005535 7.205720 0.990497 -0.022140 -0.026121 0.988298
8.001523 2.788091 0.990328 0.022121 0.024745 0.988078
2.779345 2.010348 0.990345 0.025910 -0.022119 0.988197
6.266082 7.564583 0.987494 -0.104500 0.055453 0.990712
2.426863 6.259901 0.987313 -0.052077 -0.102615 0.990118
3.685180 2.439402 0.987621 0.099281 -0.055085 0.990465
7.546262 3.729703 0.987922 0.053770 0.103994 0.991172
5.022469 3.058854 0.969019 0.250559 -0.001067 0.980636
3.019209 5.001760 0.970779 -0.003396 -0.241988 0.982001
6.935430 5.017411 0.968786 0.003981 0.253722 0.980961
4.962175 6.935690 0.968530 -0.251767 -0.002983 0.980220
0.832281 8.181086 0.986479 -0.002238 -0.001232 0.981144
8.164980 9.162188 0.986527 -0.000934 0.002424 0.981211
8.181086 0.832281 0.986610 0.000538 -0.000632 0.981327
0.837844 1.835102 0.986605 -0.000597 -0.000814 0.981321
9.167719 8.181086 0.986642 0.000830 0.000442 0.981375
1.818914 9.167719 0.986579 -0.000620 0.000917 0.981282
1.818914 0.832281 0.986515 0.001207 -0.001998 0.981198
9.167719 1.818914 0.986378 0.002194 0.000943 0.981007
3.463676 3.544713 0.974119 0.156430 -0.162688 0.984610
6.451599 3.476202 0.974300 0.162220 0.156182 0.984697
6.541885 6.463657 0.974669 -0.152270 0.163300 0.984698
3.536343 6.541885 0.974251 -0.157663 -0.156653 0.984166
6.082425 9.199252 0.994823 -0.011083 0.005543 0.993099
6.086556 0.792692 0.995261 0.006931 -0.000774 0.993664
9.199904 6.085104 0.995049 0.000463 0.007804 0.993397
0.800096 6.085104 0.994787 -0.005037 -0.010531 0.993062
0.794928 3.342076 0.993875 -0.000151 -0.004824 0.991652
3.345178 0.791766 0.993654 0.007933 -0.005376 0.991334
9.208234 3.345178 0.993698 0.005915 0.007579 0.991403
3.347158 9.244216 0.993926 -0.003854 0.000388 0.991725
1.752570 4.356715 0.992197 0.006500 -0.060776 0.992908
4.356715 8.247430 0.992131 -0.061918 -0.007963 0.992874
4.356715 1.752570 0.992045 0.063050 -0.016912 0.992648
8.245118 4.347028 0.992896 0.016541 0.060273 0.993444
1.986097 5.728875 0.990015 -0.024256 -0.083979 0.991798
5.732996 8.081034 0.991544 -0.073921 0.023582 0.992796
5.677314 1.825135 0.991908 0.067678 0.009705 0.992963
8.192773 5.647287 0.991927 -0.008408 0.063659 0.992643
3.344457 7.749750 0.989601 -0.064339 -0.034710 0.990389
6.667520 2.202512 0.990117 0.058991 0.032023 0.990450
2.212070 3.332127 0.989815 0.032282 -0.059420 0.990046
4.277109 4.585078 0.904345 0.116900 -0.214119 0.926812
5.414922 4.277109 0.904104 0.214606 0.115602 0.926918
5.722891 5.414922 0.903354 -0.114283 0.214720 0.926119
4.585078 5.722891 0.904174 -0.211450 -0.116639 0.926722
6.777775 0.711876 0.993634 0.002581 -0.000504 0.991231
9.302383 6.793667 0.993427 0.000319 0.002412 0.990947
0.714571 6.796938 0.993193 -0.004238 -0.006142 0.990603
6.789939 9.289557 0.993272 -0.006071 0.004574 0.990707
7.506513 4.384500 0.985331 0.037041 0.144918 0.990286
4.364981 2.484274 0.985191 0.145147 -0.039718 0.990308
6.124735 4.076293 0.948491 0.181044 0.219114 0.964074
5.893394 6.168403 0.948003 -0.226608 0.174847 0.963127
4.083768 3.849609 0.950723 0.222850 -0.173448 0.966033
3.881000 5.925573 0.948000 -0.180626 -0.216966 0.963228
2.576605 5.548775 0.983787 -0.041930 -0.167540 0.990930
5.548775 7.423395 0.983963 -0.165775 0.042258 0.990495
7.835482 6.563091 0.990567 -0.029189 0.060826 0.991222
4.949677 9.346282 0.996076 -0.009597 0.002064 0.994869
4.949677 0.653718 0.996029 0.009442 -0.002743 0.994782
0.653718 4.949677 0.996095 -0.002740 -0.009151 0.994912
9.352500 4.948916 0.995967 0.002381 0.009870 0.994682
6.788684 7.940525 0.990630 -0.042818 0.029998 0.989678
4.954335 8.391499 0.992805 -0.058587 0.004680 0.993371
1.603078 4.951324 0.992948 -0.004673 -0.057239 0.993632
4.950523 1.597518 0.992889 0.057309 -0.005163 0.993344
8.413216 4.946289 0.992826 0.004815 0.052269 0.992735
7.006639 1.566909 0.991834 0.016815 0.006464 0.989475
1.573411 2.989054 0.991633 0.006994 -0.017104 0.989196
2.966602 8.414829 0.991667 -0.018446 -0.007237 0.989381
1.611194 7.676484 0.989465 -0.008740 -0.007617 0.985629
8.388618 7.702039 0.989411 -0.003569 0.008058 0.985579
2.318491 1.590831 0.989357 0.007415 -0.008125 0.985486
8.388618 2.297961 0.989376 0.008587 0.006880 0.985522
0.613041 3.911757 0.995465 -0.000856 -0.005115 0.993885
3.908297 9.379108 0.995350 -0.005008 0.000397 0.993744
9.402418 3.916470 0.995308 0.004381 0.007872 0.993636
3.913083 0.595392 0.995362 0.007314 -0.003787 0.993702
5.454737 2.598152 0.982740 0.169056 0.028307 0.989287
2.609916 4.561020 0.982301 0.028489 -0.172977 0.988946
7.395772 5.446024 0.982544 -0.026299 0.172223 0.989264
4.380613 6.985827 0.973742 -0.219872 -0.062515 0.984166
9.419976 9.409597 0.979902 0.000219 0.000305 0.971979
0.588320 9.411680 0.979903 -0.000255 0.000214 0.971981
0.588320 0.588320 0.979875 -0.000199 -0.000109 0.971942
9.411680 0.588320 0.979869 0.000215 -0.000098 0.971934
9.420990 5.547385 0.996002 0.000973 0.006855 0.994674
5.548259 0.603021 0.996087 0.006647 -0.001299 0.994799
0.575632 5.542564 0.995908 -0.003151 -0.007626 0.994534
5.542564 9.424368 0.995949 -0.008191 0.002961 0.994576
0.578352 7.663371 0.989174 -0.002298 -0.002366 0.984900
0.601287 2.343094 0.989405 -0.000549 -0.000484 0.985234
7.659823 0.598707 0.989512 -0.000012 -0.000602 0.985379
2.345500 0.605869 0.989349 0.002325 -0.002255 0.985152
9.421640 7.663382 0.989358 0.000743 -0.000274 0.985162
7.659711 9.422696 0.989281 -0.002207 0.002621 0.985049
2.342422 9.432462 0.989496 0.000056 0.000932 0.985355
9.417988 2.337141 0.989107 0.002445 0.001903 0.984813
7.710894 1.562782 0.989414 0.006823 0.003030 0.985516
2.273789 8.437116 0.989564 -0.007794 -0.003036 0.985758
7.724230 8.438471 0.989185 -0.006008 0.008120 0.985190
1.562782 2.289106 0.989361 0.003339 -0.007236 0.985445
6.969839 8.514170 0.991374 -0.015754 0.012654 0.988612
8.519072 3.024369 0.991414 0.012890 0.016183 0.988788
8.505786 6.967655 0.991782 -0.005967 0.015548 0.989378
1.475297 6.966478 0.991463 -0.012115 -0.016929 0.988809
3.038824 1.486495 0.991723 0.017209 -0.012812 0.989255
3.499450 7.113092 0.984742 -0.123370 -0.086414 0.990210
6.506635 2.893892 0.984264 0.122227 0.085891 0.989511
7.106108 6.506635 0.984282 -0.087702 0.124647 0.989750
3.123327 3.988997 0.975412 0.104338 -0.193779 0.984962
3.650501 3.004195 0.982353 0.144122 -0.098948 0.988919
6.995805 3.650501 0.982482 0.097335 0.142158 0.988912
6.508220 7.027643 0.982938 -0.132147 0.100827 0.989105
2.971550 6.507206 0.983369 -0.097053 -0.131467 0.989295
1.361038 5.861407 0.993509 -0.011136 -0.031301 0.992538
5.858422 8.622577 0.993564 -0.032292 0.012354 0.992520
6.009468 3.122928 0.975341 0.193835 0.103352 0.985171
2.892236 3.492793 0.984448 0.087443 -0.123603 0.989854
6.876653 5.996596 0.975412 -0.101555 0.196352 0.985292
0.554409 8.665248 0.983166 -0.000835 -0.000253 0.976518
9.445591 1.334752 0.983084 0.000875 0.000089 0.976404
8.657701 0.548021 0.983252 0.000089 -0.000355 0.976637
8.662141 9.427069 0.983232 -0.000063 0.000987 0.976610
0.572931 1.337859 0.983200 -0.000443 -0.000221 0.976566
1.317810 0.559097 0.983051 0.000148 -0.000694 0.976358
9.440903 8.682190 0.983124 0.000613 0.000073 0.976460
1.333268 9.448243 0.983171 -0.000244 0.000555 0.976524
3.609008 4.879304 0.944000 0.023262 -0.283261 0.960262
5.113113 3.596009 0.943723 0.283709 0.025518 0.960603
6.403991 5.113113 0.943025 -0.024450 0.285607 0.959982
4.886887 6.403991 0.943387 -0.285814 -0.021406 0.960009
2.033337 3.881986 0.990928 0.021656 -0.070447 0.992090
4.496082 7.539687 0.984441 -0.152475 -0.025004 0.989878
3.875018 7.976184 0.990282 -0.073293 -0.023208 0.991667
5.878627 1.271920 0.994353 0.024180 0.002457 0.993301
8.682901 5.892480 0.994157 -0.002603 0.025953 0.993136
2.562060 2.481019 0.989750 0.031535 -0.033636 0.988196
2.503162 7.433752 0.989880 -0.036321 -0.033405 0.988671
7.494277 2.573080 0.989586 0.034670 0.031179 0.988075
7.496118 7.428934 0.989940 -0.030375 0.034311 0.988629
2.429604 6.861623 0.989065 -0.046477 -0.062286 0.989459
8.013200 3.331189 0.990676 0.029521 0.045711 0.990019
3.343625 2.028147 0.990570 0.049282 -0.030447 0.990102
6.151421 2.027401 0.991072 0.069806 0.023165 0.992257
2.905721 9.494866 0.992492 -0.000261 0.000831 0.989567
2.872163 0.529272 0.992171 0.003756 -0.002895 0.989112
9.470728 2.872163 0.992130 0.003102 0.003317 0.989056
0.505134 2.905721 0.992453 -0.000423 -0.000692 0.989505
1.239513 8.520468 0.985584 -0.002054 -0.000236 0.979901
1.239513 1.479532 0.985627 -0.000083 -0.001550 0.979966
8.539782 1.263805 0.985634 0.001601 -0.000241 0.979975
8.529481 8.755385 0.985565 0.000007 0.002040 0.979876
4.597010 3.539246 0.950908 0.272432 -0.079930 0.966066
3.542377 5.399796 0.950494 -0.078219 -0.272607 0.965736
6.464844 4.607919 0.949693 0.080348 0.275949 0.964820
5.399796 6.457623 0.950394 -0.273529 0.079674 0.965953
2.097333 7.910378 0.989549 -0.012955 -0.009512 0.986053
7.912330 2.079566 0.989436 0.011971 0.008931 0.985868
2.089622 2.097333 0.989514 0.009631 -0.012381 0.985981
7.876455 7.906845 0.989367 -0.009812 0.013184 0.985858
1.113913 3.893214 0.994342 0.001080 -0.016957 0.992922
3.893214 8.886087 0.994181 -0.017537 -0.001880 0.992798
8.866770 3.891927 0.994279 0.009760 0.019344 0.992751
3.893214 1.113913 0.994211 0.018660 -0.008553 0.992637
3.894803 1.986444 0.990811 0.069627 -0.029735 0.991640
8.013556 3.894803 0.990924 0.028352 0.068427 0.991656
4.521382 5.184849 0.883643 -0.060788 -0.166601 0.909113
4.815151 4.521382 0.883757 0.167202 -0.063930 0.909332
5.478618 4.815151 0.883240 0.065032 0.165915 0.908862
5.184849 5.478618 0.882971 -0.164205 0.063085 0.908552
1.945153 6.698260 0.990774 -0.025842 -0.042713 0.989663
3.076852 2.447822 0.989678 0.058097 -0.046989 0.990198
7.552178 3.076852 0.989695 0.048456 0.057632 0.990292
9.508904 4.468856 0.996169 0.002671 0.007012 0.994823
4.468856 0.491096 0.996188 0.006580 -0.002951 0.994862
0.508374 4.481242 0.996208 -0.001564 -0.005335 0.994932
4.481242 9.491626 0.996116 -0.005521 0.000876 0.994805
6.805331 7.473325 0.988736 -0.070710 0.054904 0.990174
3.135002 4.528953 0.968827 0.056954 -0.240200 0.979875
5.523777 3.127075 0.969423 0.236712 0.065769 0.980709
6.885019 5.522359 0.969455 -0.062839 0.237557 0.980774
3.913694 6.853052 0.975499 -0.186999 -0.109542 0.984878
7.938678 6.125709 0.990203 -0.024073 0.072825 0.991335
8.707310 1.966045 0.987698 0.003962 0.001978 0.982910
1.961032 1.296416 0.987735 0.002446 -0.003761 0.982964
8.707310 8.033955 0.987917 -0.000075 0.002765 0.983221
1.314838 8.017406 0.987867 -0.004382 -0.002513 0.983150
8.917938 4.819150 0.995058 0.004460 0.022673 0.994006
4.823748 1.081129 0.995177 0.022280 -0.004826 0.994229
1.115859 4.841229 0.994965 -0.003568 -0.024172 0.994175
4.823748 8.918871 0.994856 -0.023040 0.002715 0.993883
6.706978 1.172780 0.993190 0.009803 0.001472 0.990941
1.071692 6.477770 0.993472 -0.007634 -0.013687 0.991327
6.477770 8.928308 0.993527 -0.013451 0.008273 0.991390
8.923406 6.478428 0.993625 -0.001662 0.011256 0.991615
7.540906 6.955202 0.988800 -0.041366 0.056890 0.988849
1.996511 6.217602 0.990699 -0.029331 -0.065572 0.991170
6.200645 8.046683 0.990776 -0.060722 0.029860 0.990953
7.184496 0.453091 0.992119 -0.000391 -0.000489 0.989023
7.188547 9.517184 0.991909 -0.003435 0.002900 0.988730
0.484057 7.185697 0.991852 -0.002599 -0.003517 0.988655
9.509179 7.179752 0.992004 0.000501 -0.000205 0.988873
2.243142 4.329689 0.988193 0.023517 -0.114301 0.991717
1.563551 5.392155 0.993091 -0.010577 -0.050679 0.993287
5.380570 8.433042 0.992736 -0.051904 0.010562 0.992655
1.899322 8.710877 0.987766 -0.002578 0.000188 0.982983
5.985668 7.197892 0.981633 -0.166409 0.077541 0.988813
2.793541 6.005944 0.980925 -0.077666 -0.164443 0.987547
4.557572 2.947922 0.974465 0.222270 -0.051400 0.984456
7.050742 4.566475 0.973766 0.052955 0.225182 0.983753
0.462107 6.400232 0.994620 -0.002676 -0.005099 0.992577
6.396386 0.455751 0.995020 0.001441 -0.000655 0.993130
6.396324 9.543302 0.994706 -0.005228 0.002969 0.992692
9.551437 6.395914 0.994902 0.000394 0.001608 0.992974
8.042193 8.749542 0.987671 -0.001897 0.004154 0.982863
1.269967 1.930090 0.987711 0.000249 -0.002626 0.982918
8.069910 1.269967 0.987742 0.002386 0.000120 0.982962
2.447242 2.984972 0.989674 0.040915 -0.053551 0.989804
7.051707 2.477988 0.989701 0.052323 0.040426 0.989763
2.972482 7.549480 0.989607 -0.056920 -0.041429 0.990087
8.942736 8.563000 0.984960 0.000656 0.000970 0.979025
8.942736 1.437000 0.984773 0.001612 0.000135 0.978765
1.456189 8.887251 0.985253 -0.001286 0.000531 0.979434
1.437000 1.057264 0.984883 0.000261 -0.001444 0.978919
3.279908 8.783152 0.992963 -0.012450 -0.002582 0.990832
1.239216 3.282103 0.992812 0.002791 -0.012640 0.990552
5.719832 2.266628 0.987883 0.116668 0.026328 0.991676
4.900649 2.585013 0.982135 0.176627 -0.012297 0.988876
7.403891 4.896662 0.982169 0.012829 0.179957 0.989187
5.415863 7.001904 0.974188 -0.226726 0.051496 0.984269
3.007705 5.412278 0.973637 -0.049488 -0.228293 0.984495
2.622447 5.089938 0.982012 -0.008779 -0.184996 0.989844
5.117097 7.377813 0.982157 -0.182065 0.015802 0.988904
4.023465 2.769108 0.981663 0.160051 -0.071223 0.987958
7.281951 3.981374 0.983603 0.067346 0.149358 0.989504
7.885313 4.588281 0.989320 0.017547 0.103296 0.991778
4.571764 2.129052 0.989002 0.104810 -0.020082 0.991725
7.802836 5.717839 0.988881 -0.021580 0.105272 0.991967
5.862943 7.713344 0.987693 -0.112041 0.041142 0.990906
2.328140 5.899583 0.987644 -0.041927 -0.113272 0.991151
6.296888 6.103494 0.959411 -0.177668 0.205281 0.973229
3.486552 6.110734 0.967836 -0.145719 -0.203350 0.979528
3.651768 3.869601 0.962100 0.170501 -0.199225 0.975134
3.847435 6.353301 0.961816 -0.195143 -0.171192 0.973969
3.863065 3.525349 0.967197 0.202949 -0.152194 0.979348
6.133638 3.683832 0.961877 0.201684 0.174440 0.975567
6.527745 3.885357 0.968210 0.146463 0.205759 0.980268
6.140262 6.503135 0.967808 -0.198777 0.153517 0.979401
9.560763 8.070237 0.986784 0.000615 -0.000539 0.981557
1.945928 9.583950 0.986976 0.000346 0.000648 0.981825
0.423197 1.941888 0.986829 -0.000437 0.000183 0.981620
8.058112 0.423197 0.986945 -0.000455 -0.000378 0.981781
0.423197 8.058112 0.986764 -0.001330 -0.001270 0.981527
8.056396 9.581679 0.986823 -0.001069 0.001522 0.981610
1.929763 0.439237 0.986729 0.001094 -0.001189 0.981481
9.560763 1.929763 0.986598 0.001415 0.000867 0.981298
3.536225 9.583636 0.994686 -0.001199 0.000314 0.992686
0.416364 3.536225 0.994731 -0.000351 -0.001611 0.992739
3.514136 0.428019 0.994605 0.004978 -0.002977 0.992554
9.571981 3.514136 0.994618 0.003368 0.004734 0.992570
5.358107 1.549559 0.993540 0.049382 0.001070 0.993762
8.426129 5.349019 0.993021 -0.001016 0.049982 0.993126
2.201879 8.999626 0.988848 -0.001739 0.000678 0.984488
8.792975 3.362698 0.992966 0.010575 0.015078 0.990803
3.328600 1.215652 0.992866 0.015253 -0.009775 0.990623
4.534751 8.673828 0.994194 -0.034149 -0.000134 0.993665
1.368339 4.521314 0.994151 -0.000326 -0.034698 0.993702
4.558822 1.340132 0.994191 0.034716 -0.008392 0.993588
8.625241 4.504819 0.993905 0.009365 0.035715 0.993113
9.588020 5.930370 0.995801 0.000619 0.002926 0.994256
5.922865 9.574126 0.995793 -0.005754 0.002604 0.994254
5.930370 0.411980 0.995901 0.002592 -0.000936 0.994391
0.425874 5.922865 0.995784 -0.002591 -0.005411 0.994250
8.520577 3.999901 0.993541 0.014172 0.034606 0.992634
1.484976 3.986636 0.993500 0.005189 -0.034318 0.992818
3.975842 1.493756 0.993002 0.036398 -0.014856 0.992066