TITLE = "Example: 2D Finite Element Data"
VARIABLES = "X", "Y", "rho", "u", "v", "p"
ZONE NODES=1230, ELEMENTS = 2340, DATAPACKING = POINT, ZONETYPE = FEQUADRILATERAL, SOLUTIONTIME=2.106114e-02
-1.000000 -1.000000 1.097337 161.374278 -2.490064 86865.966854
2.000000 -1.000000 1.067349 169.754869 5.205415 83992.295996
2.000000 1.000000 1.067519 169.554740 -5.144835 84014.334897
-1.000000 1.000000 1.097456 161.311555 2.700140 86879.303232
0.100000 0.000000 0.954367 6.088305 -1.173284 77685.920008
-0.850000 -1.000000 1.098391 160.818642 -3.474048 86983.192079
-0.700000 -1.000000 1.099413 160.497946 -4.399038 87097.040591
-0.550000 -1.000000 1.099340 160.865348 -4.863331 87090.031026
-0.400000 -1.000000 1.097862 162.273972 -5.214891 86929.894662
-0.250000 -1.000000 1.095348 164.607605 -4.853842 86658.336367
-0.100000 -1.000000 1.092242 167.213061 -4.003703 86322.833301
0.050000 -1.000000 1.088134 169.948403 -2.670318 85877.891243
0.200000 -1.000000 1.084247 172.232167 -1.213321 85458.297684
0.350000 -1.000000 1.080846 173.918985 0.083014 85095.278877
0.500000 -1.000000 1.078082 175.009247 1.146704 84808.202066
0.650000 -1.000000 1.075921 175.564616 1.981515 84594.575197
0.800000 -1.000000 1.074124 175.722263 2.666784 84428.088998
0.950000 -1.000000 1.072392 175.597906 3.235435 84286.602875
1.100000 -1.000000 1.070427 175.399883 3.808773 84118.759408
1.250000 -1.000000 1.068994 175.015057 4.244328 84004.291063
1.400000 -1.000000 1.067673 174.485174 4.621951 83902.419173
1.550000 -1.000000 1.066443 173.779004 4.962808 83807.077158
1.700000 -1.000000 1.065932 172.796677 5.203626 83791.471940
1.850000 -1.000000 1.066083 171.271493 5.322572 83836.807923
2.000000 -0.900000 1.069890 169.472231 5.289152 84305.990516
2.000000 -0.800000 1.069073 169.303628 6.335863 84285.104739
2.000000 -0.700000 1.066622 168.976718 7.381800 84113.137646
2.000000 -0.600000 1.063277 168.403989 8.162560 83881.341133
2.000000 -0.500000 1.058635 167.580116 8.513145 83565.626209
2.000000 -0.400000 1.053732 166.646957 8.211171 83240.788541
2.000000 -0.300000 1.049239 165.522652 7.153797 82946.653443
2.000000 -0.200000 1.044933 164.762070 5.383462 82654.257910
2.000000 -0.100000 1.042396 164.100976 2.942429 82499.998673
2.000000 0.000000 1.041903 163.473112 0.053071 82500.632209
2.000000 0.100000 1.042510 164.019569 -2.802175 82519.212524
2.000000 0.200000 1.044403 164.976832 -5.244046 82607.118681
2.000000 0.300000 1.047959 165.720779 -7.104144 82835.960698
2.000000 0.400000 1.053635 166.436120 -8.221357 83239.125406
2.000000 0.500000 1.058904 167.543969 -8.645503 83585.840421
2.000000 0.600000 1.063081 168.292102 -8.336119 83874.611889
2.000000 0.700000 1.066402 168.998606 -7.512967 84096.450659
2.000000 0.800000 1.069094 169.624598 -6.308767 84276.184014
2.000000 0.900000 1.070039 169.498181 -5.244241 84317.224303
1.850000 1.000000 1.066819 171.066866 -5.213822 83926.332448
1.700000 1.000000 1.066691 172.773631 -5.102882 83873.297485
1.550000 1.000000 1.066857 173.896301 -4.969299 83844.131524
1.400000 1.000000 1.067881 174.610654 -4.561559 83918.633673
1.250000 1.000000 1.069670 175.059772 -4.058287 84063.633493
1.100000 1.000000 1.071056 175.475879 -3.683800 84162.890543
0.950000 1.000000 1.072345 175.767619 -3.273752 84262.844138
0.800000 1.000000 1.073893 175.821481 -2.755337 84400.940400
0.650000 1.000000 1.075740 175.655400 -2.081253 84578.225589
0.500000 1.000000 1.077769 175.184707 -1.239352 84778.578210
0.350000 1.000000 1.079983 174.157975 0.145479 85002.483120
0.200000 1.000000 1.084161 172.223708 1.414800 85445.445836
0.050000 1.000000 1.088298 169.894790 2.524925 85892.318930
-0.100000 1.000000 1.092110 166.916012 4.014047 86304.463719
-0.250000 1.000000 1.095838 164.209091 4.734237 86709.675694
-0.400000 1.000000 1.098055 162.238017 5.306321 86950.782607
-0.550000 1.000000 1.099521 160.822423 4.991437 87110.298589
-0.700000 1.000000 1.099367 160.423349 4.488715 87092.066612
-0.850000 1.000000 1.098012 160.777614 3.661667 86941.438376
-1.000000 0.900000 1.099135 161.206561 2.152093 87065.035801
-1.000000 0.800000 1.101284 160.741767 1.767485 87303.007548
-1.000000 0.700000 1.103241 160.206115 1.586975 87520.033266
-1.000000 0.600000 1.105277 159.623887 1.501662 87746.193797
-1.000000 0.500000 1.107018 159.052737 1.410971 87939.545787
-1.000000 0.400000 1.108794 158.508390 1.239296 88137.007196
-1.000000 0.300000 1.110227 158.065171 0.927512 88296.238075
-1.000000 0.200000 1.111469 157.701250 0.674702 88434.369614
-1.000000 0.100000 1.112282 157.352349 0.359093 88525.018328
-1.000000 0.000000 1.112574 157.306544 -0.095229 88557.346544
-1.000000 -0.100000 1.112248 157.449424 -0.382034 88521.069213
-1.000000 -0.200000 1.111402 157.709172 -0.693962 88426.965255
-1.000000 -0.300000 1.110166 158.082963 -1.014737 88289.483499
-1.000000 -0.400000 1.108620 158.572753 -1.135670 88117.523064
-1.000000 -0.500000 1.106862 159.121699 -1.354042 87922.191704
-1.000000 -0.600000 1.104970 159.727067 -1.476159 87711.983367
-1.000000 -0.700000 1.103012 160.279155 -1.559447 87494.593112
-1.000000 -0.800000 1.101179 160.791539 -1.714528 87291.358773
-1.000000 -0.900000 1.099037 161.276472 -1.970343 87054.037642
0.098769 0.015643 0.951687 9.885349 -15.080095 77338.232735
0.095106 0.030902 0.946341 18.675731 -30.200067 76647.262026
0.089101 0.045399 0.935255 34.263233 -44.820319 75251.091081
0.080902 0.058778 0.920473 57.035423 -57.600725 73373.864123
0.070711 0.070711 0.898376 87.330905 -66.227940 70626.163257
0.058778 0.080902 0.875286 122.805461 -68.467521 67733.662731
0.045399 0.089101 0.848134 160.765195 -61.783589 64405.030172
0.030902 0.095106 0.825058 193.728945 -47.041895 61642.152809
0.015643 0.098769 0.824381 216.611928 -19.851572 61296.460179
-0.000000 0.100000 0.838364 226.196797 12.115027 62514.399399
-0.015643 0.098769 0.872611 220.118996 43.620923 65982.182893
-0.030902 0.095106 0.918324 202.402427 70.646052 70728.554720
-0.045399 0.089101 0.974116 175.591194 90.621864 76692.162455
-0.058778 0.080902 1.033939 144.078761 100.565926 83219.184194
-0.070711 0.070711 1.091473 110.833346 101.317815 89634.679045
-0.080902 0.058778 1.138065 80.427796 91.997669 94917.473184
-0.089101 0.045399 1.176050 53.083254 77.220206 99367.324888
-0.095106 0.030902 1.207764 31.730420 56.193354 103139.715289
-0.098769 0.015643 1.226661 17.623252 29.609153 105426.878066
-0.100000 -0.000000 1.234571 12.933906 0.689736 106372.196901
-0.098769 -0.015643 1.224564 20.241972 -27.762880 105118.934638
-0.095106 -0.030902 1.208742 32.681316 -54.521517 103262.433959
-0.089101 -0.045399 1.180921 54.326040 -77.145256 99996.481229
-0.080902 -0.058778 1.140130 81.124384 -93.878462 95236.012851
-0.070711 -0.070711 1.089667 112.035132 -102.005480 89456.453128
-0.058778 -0.080902 1.034930 143.884145 -101.460642 83326.389349
-0.045399 -0.089101 0.978318 175.663627 -90.722794 77115.726176
-0.030902 -0.095106 0.924790 202.343181 -70.994570 71411.556693
-0.015643 -0.098769 0.870696 221.704654 -43.208434 65813.138943
0.000000 -0.100000 0.834856 228.040415 -10.860429 62210.284109
0.015643 -0.098769 0.819607 218.942852 21.118922 60858.409392
0.030902 -0.095106 0.820617 195.702900 47.210857 61260.749581
0.045399 -0.089101 0.842198 160.748456 63.129886 63919.626646
0.058778 -0.080902 0.870330 123.706852 67.677633 67317.304560
0.070711 -0.070711 0.898451 87.977547 64.266150 70748.631451
0.080902 -0.058778 0.917392 55.729449 56.026360 73166.118163
0.089101 -0.045399 0.934299 33.256724 42.299947 75259.827951
0.095106 -0.030902 0.945264 18.090177 27.494230 76611.228544
0.098769 -0.015643 0.950054 7.822069 12.864055 77205.161286
1.018900 -0.080189 1.048590 140.292778 2.290532 84042.459730
0.605324 0.373875 1.061221 165.235221 -6.156190 83957.949375
0.549603 -0.333358 1.058407 163.064093 7.349959 83846.568480
-0.472821 -0.412832 1.109643 157.385044 -9.074231 88243.799233
-0.473887 0.403052 1.110731 156.748166 8.902067 88364.922614
0.199479 0.481585 1.067340 178.798005 3.184870 83785.552564
0.170789 -0.439421 1.063050 180.571375 -4.049178 83387.077557
-0.467039 0.027294 1.127070 146.658241 0.747646 90213.942073
0.458343 0.040246 1.029413 110.970561 -4.149985 83450.893664
-0.159228 0.384410 1.095424 165.476532 20.028380 86762.639517
-0.159763 -0.380071 1.096251 165.884566 -20.026697 86876.434756
0.314955 -0.193972 1.035850 147.714280 13.747411 82716.261340
-0.284309 -0.177063 1.130839 142.821724 -18.341833 90752.906749
0.282350 0.167768 1.025460 139.346058 -16.434454 82091.377252
0.142398 -0.235796 1.023827 181.626509 5.621343 80227.769012
0.272653 -0.016883 1.005752 80.907557 4.523673 82010.633643
-0.020974 -0.266503 1.052598 184.262790 -24.810392 82622.207117
0.112578 0.271787 1.035007 186.578338 2.398217 80955.643993
1.417860 0.328012 1.056706 159.621545 -5.178423 83840.854667
-0.287115 0.168595 1.130680 142.981164 18.641735 90753.165075
1.457830 -0.339509 1.057163 160.974760 5.215056 83808.892329
-0.023788 0.236645 1.042171 188.311349 28.244038 81676.957837
0.196778 -0.117893 1.004707 119.777390 24.246316 80933.077994
0.996374 0.326617 1.058150 157.561296 -5.613333 84064.417189
-0.253516 0.019952 1.156754 121.180516 1.779239 93962.174225
0.936381 -0.541081 1.066851 169.779760 4.781750 84155.950142
-0.114248 -0.188816 1.095573 158.938627 -44.342988 87448.184122
0.730129 -0.097741 1.044329 131.721359 4.072868 84017.015106
-0.109587 0.174196 1.095006 157.796159 48.071440 87599.896895
0.138391 0.160258 0.998504 160.351212 -21.698598 79006.773664
1.379720 0.008384 1.049236 148.585539 0.028930 83736.836852
0.181408 0.073797 0.986386 81.795625 -23.816958 80096.459839
-0.199017 -0.082436 1.161833 118.796252 -25.756872 94789.815227
-0.168506 0.101803 1.150189 119.865089 37.947042 93778.695766
0.046420 -0.193352 0.990258 198.134879 -5.387038 76922.009623
-0.700915 -0.176538 1.114423 155.443500 -2.536266 88767.153713
0.861837 0.118494 1.047741 138.011700 -4.019076 84065.880519
-0.706427 0.212984 1.114042 155.546200 2.808327 88725.433494
1.658740 -0.628648 1.063984 169.993208 6.061404 83894.756827
0.046889 0.175512 0.970966 200.240170 0.675415 75257.619126
0.444490 -0.661547 1.073094 175.799706 0.460379 84353.292794
1.175660 -0.334071 1.059201 160.077132 5.309190 84012.905881
1.305580 -0.647245 1.066796 171.178374 4.861734 84075.599481
-0.681200 0.645174 1.104449 159.645843 4.975057 87656.875676
-0.682147 -0.646925 1.104307 159.746707 -4.871343 87641.019219
1.664120 0.126694 1.049083 156.091621 -2.524531 83395.769349
0.187658 -0.016452 0.986274 57.860888 7.457522 80514.203140
-0.032700 -0.682880 1.087962 170.436266 -7.822738 85874.066399
-0.301892 -0.620942 1.099415 163.205092 -9.665134 87112.186454
0.838424 0.649114 1.070130 173.357103 -3.556848 84236.459969
1.196490 0.628850 1.067338 171.278513 -4.654171 84112.575232
-0.294896 0.678154 1.097824 163.743411 8.792861 86932.902339
0.111301 -0.137182 0.969155 157.304123 29.422948 76425.599218
0.895976 -0.295295 1.057723 155.809369 6.048568 84112.857711
0.021504 0.408470 1.068560 179.353546 12.874921 83907.532582
-0.004841 0.692294 1.085604 170.922276 7.341160 85608.432794
1.674290 0.556160 1.062140 168.798161 -6.324225 83800.985367
0.498697 -0.149457 1.038891 132.759097 9.494247 83487.425964
1.158920 0.126001 1.050446 145.826646 -3.251790 83960.073196
0.465582 0.663825 1.073098 175.503098 -0.747126 84367.234013
1.701830 -0.162999 1.049783 158.081177 3.659076 83352.765588
0.389198 0.373076 1.059739 172.142669 -4.593776 83525.531114
0.356592 -0.388661 1.060219 174.550399 3.586996 83434.952372
-0.010486 -0.168150 0.985356 203.345135 -31.972877 76622.859244
0.657591 0.090686 1.042155 130.127033 -5.320529 83879.292150
-0.133766 -0.116038 1.135586 127.906272 -52.144701 92478.570027
-0.172520 -0.013578 1.191322 87.178211 -5.733491 98992.303277
0.147744 -0.062150 0.972366 71.098368 28.718285 78841.564773
-0.040884 0.162700 1.012175 191.829429 48.196093 79430.460728
0.025398 -0.431379 1.071711 178.521923 -11.779617 84253.331216
0.696388 -0.555623 1.068739 172.434939 3.817108 84189.710762
0.083724 0.138121 0.951405 171.762180 -27.313142 74273.316027
-0.710788 -0.415639 1.109339 157.784821 -4.216909 88200.513972
-0.463933 0.216716 1.119948 151.143934 7.456583 89406.211212
-0.491327 -0.166902 1.120792 150.898636 -5.975947 89494.553428
0.452600 0.206978 1.043271 145.817834 -10.521440 83368.203577
1.219990 -0.124977 1.050755 147.403384 2.965074 83917.467718
-0.079392 0.129555 1.066050 158.687338 68.840046 85451.398598
-0.318120 0.339142 1.112168 155.739490 15.276663 88560.389212
0.392734 -0.083578 1.025627 111.890953 9.311546 83068.547243
0.252544 -0.310474 1.049798 175.692901 4.469216 82566.766258
0.801486 0.318729 1.057948 157.412581 -6.366183 84061.041555
0.206156 -0.678051 1.077533 175.072341 -3.339266 84766.768908
0.251076 0.312721 1.049569 174.015539 -5.349856 82681.886417
-0.702192 0.421936 1.109480 157.752088 4.347594 88216.542750
0.112148 0.092928 0.953017 102.855876 -42.363130 76177.807025
-0.675872 0.017881 1.116694 154.145487 0.209081 89022.175649
0.058916 -0.145924 0.942429 193.539515 16.034313 72930.670243
1.715310 -0.408971 1.056979 165.064159 6.374514 83578.430450
-0.078837 -0.131553 1.063960 161.959737 -68.104488 85241.520276
-0.146547 -0.055313 1.182057 90.981419 -37.909778 98287.145301
-0.149821 0.037395 1.190006 80.611546 28.574977 99255.381532
0.726862 -0.269828 1.054726 153.588454 7.329563 83957.555351
-0.308731 -0.342428 1.110932 156.755243 -16.312277 88438.090125
0.231600 0.718560 1.078163 174.523071 2.943780 84817.893887
-0.110115 0.086938 1.139388 110.925344 69.271693 93932.913424
0.864648 -0.030799 1.045532 133.316151 0.922354 84064.448535
0.128386 0.052582 0.961659 54.145109 -31.388922 77959.128864
0.143802 0.011317 0.968361 33.742578 -7.274155 78981.165289
0.076928 -0.341859 1.053115 184.455964 -8.994253 82473.181981
1.213550 0.313696 1.056633 157.392656 -5.146294 83936.178176
-0.194749 0.274268 1.109401 157.263437 24.699950 88378.598314
1.763580 0.336032 1.053818 163.281028 -6.172152 83424.624743
1.436730 0.592179 1.064815 169.737616 -5.246307 83988.545355
0.353283 0.072572 1.023488 107.674929 -9.819446 83009.472268
0.428981 -0.263041 1.049297 157.522886 9.281631 83359.457876
0.583060 -0.040377 1.036004 119.823244 2.543149 83721.630626
1.770960 0.770083 1.067530 171.392204 -5.787554 84086.544502
-0.367387 -0.061166 1.137152 140.038302 -4.820675 91403.648819
1.515060 -0.138786 1.050666 153.562727 2.869379 83638.171559
0.225579 -0.195780 1.025858 155.439106 15.208122 81557.773121
1.010770 0.079370 1.048040 140.027063 -2.536855 83999.419020
-0.283363 0.509178 1.101960 162.262620 12.387699 87402.612601
1.040230 -0.242354 1.055170 152.382547 5.144569 84052.238788
0.011782 0.144681 0.932957 212.875478 13.694135 71646.534949
-0.089874 0.542283 1.087556 170.804224 11.852907 85842.735511
-0.486286 0.606805 1.104101 160.104819 7.614399 87622.094041
-0.209482 -0.269288 1.111277 154.831140 -24.777727 88600.345117
-0.494326 -0.604742 1.103638 160.396502 -7.539413 87571.010294
0.281138 -0.110223 1.018068 114.930278 17.638150 82310.790835
1.474450 0.161433 1.051334 153.177124 -3.086773 83706.534838
0.465808 -0.495327 1.067606 174.697713 2.479035 83999.133137
0.318264 -0.536366 1.068808 177.326273 -0.543891 83965.948249
0.832310 -0.756431 1.072665 174.918764 2.925412 84361.521461
1.071800 -0.752861 1.070433 173.901215 3.868860 84236.223697
-0.197108 -0.167291 1.129537 140.985135 -30.921465 90835.584384
0.103525 -0.088985 0.941229 103.921399 45.178564 75007.819948
0.199123 0.233732 1.030209 169.968123 -10.753899 81349.790271
0.595165 0.218067 1.049006 146.742222 -8.424397 83808.672342
-0.108705 0.266780 1.086773 168.526719 30.625972 86074.254138
-0.110924 -0.535281 1.089464 169.834115 -12.585016 86063.932774
-0.569132 -0.297058 1.114287 155.042913 -5.958380 88757.800926
-0.824842 -0.057543 1.113479 156.422718 -0.604256 88659.609639
0.654251 0.577125 1.069818 173.357500 -3.166416 84225.313410
1.314580 -0.278230 1.056275 157.023338 4.935954 83928.501212
1.318730 -0.440549 1.061685 164.945979 5.325547 83975.791567
1.145610 -0.522224 1.064950 168.140405 5.129203 84082.494879
1.800820 -0.000560 1.046239 158.479873 0.175076 83068.419972
1.487560 -0.528003 1.062621 167.815132 5.559044 83906.820663
0.359673 0.526449 1.068707 176.504403 -0.306735 83984.119904
0.923434 -0.154725 1.050855 143.417239 4.689757 84095.744657
-0.576553 0.310198 1.113568 155.369342 6.087891 88677.849124
-0.576628 0.133927 1.118933 152.192317 3.187152 89280.150413
0.051110 0.540686 1.077332 175.922175 8.878355 84762.894524
-0.356278 0.079988 1.135418 139.922242 6.866070 91222.197107
1.012680 0.535921 1.066266 169.606395 -4.753335 84108.600351
0.782859 -0.417270 1.062697 165.143020 5.890036 84069.551762
1.598000 0.283752 1.053763 159.664304 -4.911266 83599.527053
0.637201 -0.182297 1.046789 141.150885 7.725086 83833.529602
1.135590 -0.025739 1.048554 142.320341 0.752594 83952.691266
0.264669 0.062322 1.006394 92.184520 -11.866214 81772.436395
-0.113186 -0.278647 1.088068 167.429656 -29.468945 86212.749617
0.754793 0.009161 1.042898 128.518236 -0.875404 84016.089194
0.626052 -0.772158 1.074432 175.418833 1.746702 84475.801884
0.122060 0.388602 1.058266 182.251367 6.116771 82917.270049
-0.826954 -0.286691 1.110870 157.474563 -2.204887 88368.977723
0.092531 -0.574718 1.077126 175.783889 -6.879408 84744.756505
-0.261440 -0.478753 1.100924 163.036100 -13.931624 87304.623052
-0.843420 0.329310 1.110446 157.737843 2.093214 88321.711158
-0.808052 0.094918 1.113653 156.165109 0.756883 88679.340252
1.311630 0.188755 1.051810 151.484261 -3.600790 83815.430004
0.345116 0.262402 1.047065 162.043961 -9.415379 83009.372227
1.544490 0.007652 1.049265 152.257802 -0.034913 83587.480865
-0.436140 -0.287265 1.116754 153.032389 -10.118977 89051.553292
1.818970 -0.749468 1.066883 170.625603 6.239041 84071.063479
0.030697 0.311424 1.051033 185.673389 13.999599 82271.855568
-0.827931 0.546291 1.106357 159.096384 2.954819 87867.316398
0.738903 0.188537 1.049501 142.429595 -6.730588 84028.066204
-0.843155 -0.568667 1.105666 159.394390 -2.869134 87790.415252
0.209086 0.142718 1.008392 134.025904 -21.980534 80765.903731
-0.031342 -0.131360 0.965103 202.975563 -54.671213 75197.606339
0.010707 -0.134638 0.910523 216.722760 -10.691434 69641.327793
1.007140 0.774257 1.071378 174.525256 -3.594696 84280.290523
-0.419160 -0.789513 1.099503 162.054399 -6.713230 87112.197614
-0.182013 0.181637 1.123436 145.650971 33.227192 90229.977159
0.130218 -0.029285 0.960404 33.722517 17.563685 78149.616541
0.492917 0.465074 1.066119 172.507470 -3.680135 83998.247050
1.028840 -0.387125 1.061205 162.364117 5.589181 84070.427763
1.836690 -0.567615 1.061740 168.579198 7.453703 83770.225931
1.585740 0.739399 1.067156 172.253765 -5.195700 84031.347381
-0.834419 0.736598 1.102549 160.236320 3.144398 87444.274870
-0.827062 -0.753694 1.102153 160.331609 -3.263627 87400.430238
1.288270 0.470539 1.062547 165.932026 -5.356177 83998.691523
0.649487 0.786271 1.074149 175.334301 -1.947846 84460.369437
1.488790 -0.746904 1.067401 172.430318 4.934842 84056.939055
0.054090 0.124127 0.908766 183.902956 -31.007918 69970.782751
0.068100 -0.265861 1.030468 189.716862 -7.407549 80462.722193
0.164088 -0.324222 1.047122 182.547298 -0.771733 82034.144984
0.800337 -0.198781 1.052074 146.847594 6.268988 84029.700897
-0.196171 -0.783101 1.093978 165.881236 -7.185306 86512.797166
-0.566153 0.782786 1.101503 160.640684 5.764492 87330.499164
1.827040 -0.278643 1.051636 163.076948 6.100706 83259.246848
-0.031229 0.130077 0.969590 200.324931 54.798797 75527.195461
-0.050410 -0.356708 1.075445 176.223915 -19.579941 84731.590267
1.846830 0.180112 1.047579 161.409282 -4.279834 83027.643775
1.335020 0.786348 1.069093 173.696960 -4.300064 84127.274070
0.165811 -0.174489 1.009359 158.809169 18.410336 80013.905208
0.097286 0.210225 1.006343 187.455808 -5.293294 78625.004103
0.225552 -0.064543 1.001945 87.261409 17.395633 81517.714652
0.545017 0.118227 1.037943 127.011962 -7.304601 83640.465524
0.042983 0.241534 1.021832 194.078565 11.397029 79697.865485
0.966202 0.202224 1.052318 147.331454 -5.226702 84050.729703
-0.100172 -0.086883 1.128167 113.697643 -78.303458 93058.060199
-0.139148 -0.014102 1.206079 61.950942 -12.464355 101719.813506
-0.565119 -0.051409 1.120816 151.452005 -1.349291 89489.756229
0.737950 0.458190 1.065203 167.937491 -5.004046 84141.789582
0.338874 -0.280097 1.049299 165.032435 8.423285 83066.242206
0.403161 -0.174607 1.035455 138.494886 12.340848 82978.799766
0.657647 -0.392632 1.062450 165.871022 6.195728 84033.250917
0.068406 -0.110577 0.902635 159.842902 45.314678 69987.491243
0.104329 -0.192257 0.997783 183.870038 10.125607 78040.244059
1.538800 0.456517 1.059680 165.279131 -5.746427 83803.035224
-0.583061 -0.491850 1.107701 158.352201 -6.460815 88020.986841
0.498169 0.315220 1.055523 162.041280 -7.781503 83678.513265
1.607290 -0.277319 1.053712 160.004675 5.017353 83570.193046
0.903007 0.430305 1.062672 165.077282 -5.289813 84062.284079
1.833680 0.496743 1.059153 167.397602 -7.556455 83622.029452
0.356687 -0.007073 1.019000 95.723664 1.191246 82926.213856
-0.055971 -0.212512 1.055373 179.761958 -38.368164 83167.128148
-0.154957 0.804594 1.092862 166.463284 6.657580 86387.338083
-0.392381 -0.509610 1.104909 160.010202 -10.431374 87721.200414
-0.280650 -0.076422 1.146056 132.142405 -11.955078 92538.619826
0.292382 0.422110 1.061942 177.624739 -1.001476 83424.562474
-0.362310 0.236874 1.121362 149.957427 13.018452 89596.516291
0.477425 -0.060281 1.030373 113.595868 5.320525 83438.901525
-0.571339 0.506199 1.107161 158.671355 6.789685 87961.188309
-0.001670 0.190324 1.002075 200.257551 25.998989 78043.612917
-0.254097 0.101578 1.145106 130.357818 18.159064 92559.815993
1.105120 -0.143923 1.051150 146.055532 3.709929 84009.081806
-0.041322 0.303642 1.067328 178.964505 23.571942 83928.493925
0.339618 -0.814227 1.078793 174.414649 -0.859573 84883.510006
1.251620 0.048907 1.049197 145.524809 -1.065293 83873.675588
0.222534 0.030713 0.992725 71.315156 -8.317815 80904.452259
1.344740 -0.121075 1.050817 149.703716 2.755002 83823.598359
1.114540 0.427041 1.062247 164.329754 -5.367383 84057.757746
0.085518 0.098307 0.923994 123.973155 -49.841439 72772.350523
0.367881 0.160229 1.033389 134.338474 -12.966647 82985.726486
0.098498 -0.819554 1.084610 171.476802 -3.907749 85498.509352
-0.123168 0.047261 1.192174 68.430980 48.703576 100325.277912
0.156355 0.116705 0.990164 121.269097 -30.900455 79486.689546
-0.622320 -0.803697 1.101225 160.557014 -5.203782 87298.928754
-0.065187 0.213853 1.060353 179.210310 38.082235 83670.584524
1.082250 0.225220 1.053285 150.068963 -4.947298 84005.978083
0.125512 0.029853 0.958953 32.439612 -20.363059 77950.551823
0.109250 0.066551 0.947636 66.425931 -42.489868 76253.510762
-0.422008 0.322333 1.114530 154.464932 10.478585 88799.454154
1.857330 -0.128940 1.046484 161.102537 3.482979 82958.467914
0.000769 -0.225009 1.024768 192.969670 -22.783302 80015.555507
-0.366106 0.430804 1.108379 158.328633 11.918542 88113.204730
0.267857 -0.399049 1.059340 178.652001 0.847673 83161.208192
0.150541 -0.105079 0.985919 115.627734 30.551429 79210.340992
0.178366 0.303964 1.045967 180.966122 -1.192167 82075.390797
0.684698 0.289971 1.057010 155.595091 -7.326745 84092.302700
0.957570 -0.000602 1.046953 136.326805 -0.078472 84069.924750
-0.389102 -0.158579 1.127192 146.277620 -9.493605 90246.799201
0.546023 -0.234379 1.048406 148.769754 9.255572 83653.555783
0.910557 -0.421905 1.063432 165.188823 5.536586 84115.120917
0.108646 -0.067352 0.944873 68.199207 41.522355 76021.372857
-0.099327 -0.456234 1.087856 170.884838 -15.562061 85926.174281
0.203233 -0.261736 1.038050 175.160590 6.895491 81682.307268
0.377543 0.824172 1.078289 174.655569 0.346623 84829.817482
-0.082257 0.100174 1.084998 138.188257 81.936567 88199.774210
1.647650 -0.817679 1.067706 172.500435 5.048911 84058.156196
0.274315 -0.244239 1.040932 164.954746 10.252339 82394.398166
1.578790 -0.443754 1.059446 165.499117 5.833510 83764.114992
0.100168 0.832319 1.084794 171.344385 4.057200 85513.797691
-0.058378 -0.175054 1.046457 180.560249 -47.446415 82631.791647
0.207800 0.383790 1.057458 180.114784 0.957302 82973.072087
0.342161 -0.133532 1.025917 124.116253 14.658713 82704.775657
-0.444939 0.141246 1.124386 148.181147 6.448699 89914.170865
1.315490 -0.872089 1.069249 174.397295 4.250290 84087.452744
-0.865059 -0.417290 1.108255 158.498182 -2.326772 88077.871996
-0.709884 -0.311897 1.111485 156.857177 -3.724749 88439.427654
1.679740 -0.030747 1.047970 155.832454 0.716808 83325.699032
0.174549 0.625117 1.076197 175.726601 4.500287 84627.525906
0.684989 -0.016163 1.040509 124.889347 0.293833 83936.468206
-0.067929 -0.111321 1.043512 161.690435 -81.520941 83688.575980
-0.204812 0.054196 1.164829 110.209900 17.970503 95246.602267
0.447176 -0.355236 1.059703 169.401348 5.787403 83643.333811
0.846429 0.828845 1.073226 175.423419 -2.818344 84382.188764
1.861410 -0.414902 1.056087 166.255790 7.584065 83440.241934
-0.870879 0.214659 1.112007 157.230247 1.368273 88495.127985
0.206502 -0.551495 1.071282 177.701472 -3.593495 84163.596100
-0.255029 0.410444 1.104142 160.883654 16.017879 87669.210629
-0.180163 0.484193 1.095386 166.345543 14.742009 86702.032219
0.813645 -0.560465 1.068054 171.533048 4.279965 84167.065240
0.549199 -0.612685 1.071423 175.134359 1.914440 84260.362638
0.273963 0.248535 1.041559 165.115223 -9.969156 82439.733641
-0.077800 0.379344 1.081962 172.531276 19.880745 85332.959488
-0.199919 0.619789 1.095092 165.886991 10.209216 86641.311741
0.322302 -0.062499 1.017607 100.163391 11.604665 82681.622743
0.234582 -0.149030 1.018522 135.023429 19.441426 81712.688544
0.813198 -0.106696 1.046245 134.850397 3.868735 84061.006356
-0.378616 0.829826 1.098471 162.426923 6.269042 86997.396002
0.858806 0.226441 1.052657 148.147712 -5.980432 84037.930024
0.444545 0.116584 1.033147 123.670412 -9.483936 83342.150852
-0.333240 -0.249690 1.120975 149.944981 -15.349771 89567.135038
-0.460705 -0.060951 1.127303 147.152371 -2.931801 90235.271732
-0.277215 0.247605 1.119608 150.961713 19.495778 89450.193615
-0.227554 -0.031927 1.165361 116.147731 -11.451133 95081.331601
0.095490 -0.438637 1.066547 180.236372 -7.815806 83719.928882
-0.122953 0.138911 1.115725 141.900245 52.285334 90102.912295
0.168009 0.039937 0.980161 61.147445 -19.859637 79834.143193
0.147569 0.213130 1.018343 177.173937 -9.743668 80044.200007
1.857420 0.614186 1.063322 169.116744 -7.439080 83862.891701
-0.121296 -0.049344 1.189722 73.045837 -51.365934 100098.680536
-0.147218 0.223568 1.106197 158.133849 33.547583 88253.109214
-0.406016 0.547474 1.104395 160.344963 9.394569 87659.451884
0.030283 -0.121803 0.876639 208.987915 17.747370 66540.980187
-0.686828 0.805040 1.101421 160.371578 4.738313 87320.165669
-0.174670 -0.667475 1.092371 167.423496 -9.232420 86347.355282
0.706520 -0.193608 1.049668 144.081872 7.070045 83961.499236
1.176520 -0.231735 1.054622 152.426529 4.662147 84014.717246
-0.009399 -0.124879 0.912114 218.203762 -32.883182 69880.285061
1.682720 0.412264 1.056771 164.621876 -6.244093 83588.126792
-0.872595 -0.155501 1.112387 157.037579 -1.078834 88537.358750
-0.591910 -0.143786 1.118232 152.848109 -2.995639 89198.144072
-0.011651 0.125196 0.914263 216.288351 35.449509 69978.795674
-0.046842 0.116295 0.988665 186.063376 73.039346 77819.122063
-0.007171 -0.554753 1.082705 173.506932 -10.047958 85339.117939
0.121279 -0.009545 0.958124 19.425008 7.403365 78026.277067
-0.126577 0.008229 1.217255 47.214297 10.788700 103490.208750
-0.229632 -0.361551 1.104699 160.828136 -19.052902 87776.220252
0.620317 -0.281341 1.053994 155.313131 8.307509 83820.727840
1.887620 0.866875 1.069044 170.563041 -5.487377 84215.782962
-0.262934 -0.121648 1.141367 135.121968 -18.161166 92023.260628
0.477742 -0.781240 1.076004 175.287684 0.549375 84610.355223
-0.344646 0.177000 1.127150 145.571117 13.090119 90277.754228
-0.692916 0.334882 1.111632 156.780543 4.042976 88456.438942
0.031014 0.120747 0.878128 205.958274 -19.476793 66621.359908
0.607898 -0.481299 1.066757 171.237458 4.316982 84109.694170
1.045500 0.021414 1.047705 139.431373 -0.854262 84000.156328
0.740268 0.108158 1.045445 133.813085 -5.160299 84041.431250
-0.324854 -0.000389 1.144489 133.451864 0.010301 92321.073274
0.550985 0.037920 1.034040 118.761162 -3.016207 83575.447036
0.037769 -0.308434 1.048854 186.100149 -12.817475 82113.413759
0.630556 -0.093634 1.040925 126.576191 5.007992 83931.803891
0.999810 -0.178181 1.052402 146.609932 4.671171 84093.589651
-0.388686 -0.418856 1.109021 157.940270 -11.195123 88182.918202
1.440840 -0.246540 1.054189 156.417111 4.512667 83792.580436
1.197530 0.791889 1.070007 174.153645 -4.018296 84180.770057
-0.718769 -0.081951 1.115250 155.097118 -1.216283 88859.316043
-0.579660 -0.397965 1.110692 156.968794 -6.303629 88354.622733
0.192189 -0.054473 0.990747 75.419242 19.018965 80631.551719
0.934771 -0.093421 1.048098 138.400662 3.028893 84073.240435
0.916729 0.319882 1.057841 157.182890 -5.869634 84054.102389
-0.550303 0.038594 1.121575 150.622124 0.984886 89578.451098
-0.063548 -0.824641 1.090994 167.914708 -5.902809 86188.554274
-0.675252 0.122007 1.115990 154.332507 1.943578 88944.282506
-0.679829 -0.517689 1.106943 158.754474 -4.876652 87934.401464
0.037244 -0.165795 0.959643 203.379620 -2.149540 74226.379011
0.233598 0.094692 1.003213 105.686504 -19.546569 81122.453796
0.077485 -0.090786 0.903454 117.936363 57.030616 70856.724805
-0.886025 0.440281 1.108170 158.614614 1.934935 88068.145482
-0.251824 0.323403 1.111475 156.243576 18.213444 88506.585665
0.308905 0.024913 1.011331 88.431440 -3.151150 82359.476191
1.381000 0.103377 1.049884 149.954957 -2.124216 83722.992715
0.117585 0.133250 0.974544 152.736014 -29.599621 76989.031019
-0.573861 0.402188 1.111149 156.696457 6.452808 88406.312222
0.298861 0.116395 1.020932 121.031077 -16.122482 82322.845642
1.281310 -0.072377 1.050030 147.226300 1.963720 83867.384882
0.081872 0.174014 0.979621 187.548271 -11.608005 76374.600029
1.858830 0.287598 1.050627 163.473114 -6.234132 83160.137850