TITLE = "Example: 2D Finite Element Data"
VARIABLES = "X", "Y", "rho", "u", "v", "p"
ZONE NODES=1230, ELEMENTS = 2340, DATAPACKING = POINT, ZONETYPE = FEQUADRILATERAL, SOLUTIONTIME=5.154858e-03
-1.000000 -1.000000 1.098571 161.091612 -2.805497 87003.502616
2.000000 -1.000000 1.076928 163.962532 2.396481 84612.263725
2.000000 1.000000 1.076878 163.909345 -2.382855 84606.592810
-1.000000 1.000000 1.098983 160.981643 3.107267 87049.798148
0.100000 0.000000 0.947849 6.076036 -1.175041 77274.981688
-0.850000 -1.000000 1.101071 160.319497 -4.146347 87282.010828
-0.700000 -1.000000 1.103570 159.824476 -5.525666 87560.941473
-0.550000 -1.000000 1.103664 160.356099 -6.204427 87573.107071
-0.400000 -1.000000 1.100849 162.328818 -6.350628 87265.138373
-0.250000 -1.000000 1.096668 165.218572 -5.467157 86808.256268
-0.100000 -1.000000 1.092362 168.003326 -4.077905 86337.523770
0.050000 -1.000000 1.087630 170.566744 -2.361104 85818.812931
0.200000 -1.000000 1.083725 172.305414 -0.689762 85389.553997
0.350000 -1.000000 1.080827 173.082897 0.674259 85070.529438
0.500000 -1.000000 1.079082 172.947849 1.690978 84878.706408
0.650000 -1.000000 1.078340 172.083943 2.362374 84796.907081
0.800000 -1.000000 1.078373 170.852907 2.624056 84798.656556
0.950000 -1.000000 1.078635 169.312106 2.746460 84822.933577
1.100000 -1.000000 1.078609 167.942251 2.526412 84812.983886
1.250000 -1.000000 1.078727 166.903352 2.405709 84820.922427
1.400000 -1.000000 1.078716 166.013747 2.296190 84815.754331
1.550000 -1.000000 1.078472 165.282646 2.222887 84785.898312
1.700000 -1.000000 1.077986 164.680501 2.250329 84730.319753
1.850000 -1.000000 1.077356 164.211194 2.350923 84659.887736
2.000000 -0.900000 1.077272 163.933894 2.381903 84650.119049
2.000000 -0.800000 1.077825 163.976810 2.291274 84711.113510
2.000000 -0.700000 1.078387 164.017652 2.150657 84773.203282
2.000000 -0.600000 1.078851 164.053960 1.938560 84824.654946
2.000000 -0.500000 1.079235 164.062933 1.709646 84867.434290
2.000000 -0.400000 1.079440 164.019915 1.447911 84890.550941
2.000000 -0.300000 1.079635 163.950402 1.142616 84912.559403
2.000000 -0.200000 1.079644 163.940167 0.778811 84913.832202
2.000000 -0.100000 1.079697 163.909499 0.411820 84919.976432
2.000000 0.000000 1.079821 163.830383 0.002250 84933.875663
2.000000 0.100000 1.079730 163.879505 -0.419935 84923.787861
2.000000 0.200000 1.079551 163.969511 -0.789805 84903.655173
2.000000 0.300000 1.079462 164.001208 -1.136490 84893.465030
2.000000 0.400000 1.079528 163.997603 -1.466651 84900.336312
2.000000 0.500000 1.079093 164.059781 -1.744648 84851.773719
2.000000 0.600000 1.078702 164.069294 -1.962523 84808.226860
2.000000 0.700000 1.078346 164.025621 -2.128114 84768.661915
2.000000 0.800000 1.077828 163.965649 -2.301864 84711.408566
2.000000 0.900000 1.077209 163.906219 -2.383943 84643.098045
1.850000 1.000000 1.077436 164.161108 -2.338712 84668.513194
1.700000 1.000000 1.078261 164.695493 -2.265808 84760.775488
1.550000 1.000000 1.078626 165.297682 -2.226459 84802.925856
1.400000 1.000000 1.078763 165.974338 -2.273439 84820.666693
1.250000 1.000000 1.078919 167.023511 -2.471333 84842.934521
1.100000 1.000000 1.078524 168.385800 -2.594062 84805.506403
0.950000 1.000000 1.078235 169.714899 -2.548189 84778.460799
0.800000 1.000000 1.077990 171.027722 -2.503760 84755.815313
0.650000 1.000000 1.078152 172.246616 -2.352699 84778.117489
0.500000 1.000000 1.078908 173.119930 -1.798210 84863.908855
0.350000 1.000000 1.080039 173.405659 -0.721917 84989.601636
0.200000 1.000000 1.083417 172.498510 0.762762 85357.285554
0.050000 1.000000 1.087459 170.720586 2.143402 85799.262794
-0.100000 1.000000 1.091849 167.946494 4.034636 86279.176598
-0.250000 1.000000 1.097146 164.955182 5.372342 86859.558552
-0.400000 1.000000 1.100880 162.427957 6.443812 87268.847766
-0.550000 1.000000 1.103821 160.398747 6.355770 87591.239987
-0.700000 1.000000 1.103497 159.802504 5.653880 87553.226247
-0.850000 1.000000 1.100660 160.303625 4.369529 87236.984014
-1.000000 0.900000 1.101243 160.698454 2.679949 87300.148753
-1.000000 0.800000 1.104554 159.851103 2.463186 87667.787966
-1.000000 0.700000 1.107713 158.901212 2.374715 88019.021590
-1.000000 0.600000 1.111045 157.901105 2.342872 88390.030562
-1.000000 0.500000 1.113821 156.973838 2.208019 88699.364217
-1.000000 0.400000 1.116485 156.150067 1.950785 88996.296142
-1.000000 0.300000 1.118555 155.499975 1.457130 89226.682507
-1.000000 0.200000 1.120307 154.988640 1.052434 89422.178517
-1.000000 0.100000 1.121329 154.522184 0.553226 89536.882071
-1.000000 0.000000 1.121765 154.463451 -0.129055 89585.238377
-1.000000 -0.100000 1.121385 154.646336 -0.569260 89542.348299
-1.000000 -0.200000 1.120242 154.994050 -1.049863 89414.878595
-1.000000 -0.300000 1.118514 155.512288 -1.548035 89222.484163
-1.000000 -0.400000 1.116265 156.220860 -1.756132 88971.435267
-1.000000 -0.500000 1.113598 157.050823 -2.134566 88674.364141
-1.000000 -0.600000 1.110551 158.074305 -2.328857 88334.876147
-1.000000 -0.700000 1.107273 159.052385 -2.347218 87969.865193
-1.000000 -0.800000 1.104189 159.996427 -2.368025 87626.927895
-1.000000 -0.900000 1.100784 160.861346 -2.394479 87248.746711
0.098769 0.015643 0.945178 9.885286 -15.082089 76922.974498
0.095106 0.030902 0.939780 18.732774 -30.248570 76212.781496
0.089101 0.045399 0.928532 34.469157 -45.005252 74777.642028
0.080902 0.058778 0.913410 57.523349 -57.997280 72837.319616
0.070711 0.070711 0.890732 88.289136 -66.854112 70000.025449
0.058778 0.080902 0.866822 124.383685 -69.270855 66995.630545
0.045399 0.089101 0.838824 163.028269 -62.601987 63560.045436
0.030902 0.095106 0.815168 196.489715 -47.657150 60727.158611
0.015643 0.098769 0.814533 219.541798 -20.054396 60375.893459
-0.000000 0.100000 0.829099 228.924402 12.310064 61642.843355
-0.015643 0.098769 0.864167 222.404471 44.129479 65181.126125
-0.030902 0.095106 0.910736 204.210695 71.314313 69999.911057
-0.045399 0.089101 0.967292 176.948347 91.358773 76027.110605
-0.058778 0.080902 1.027751 145.065386 101.278138 82606.267137
-0.070711 0.070711 1.085759 111.520236 101.975899 89059.679833
-0.080902 0.058778 1.132691 80.894844 92.570999 94369.529026
-0.089101 0.045399 1.170912 53.382405 77.703477 98838.331154
-0.095106 0.030902 1.202800 31.907076 56.576964 102625.492109
-0.098769 0.015643 1.221819 17.718227 29.878222 104923.836507
-0.100000 -0.000000 1.229803 12.988364 0.838174 105876.536843
-0.098769 -0.015643 1.219822 20.311132 -27.742168 104627.507125
-0.095106 -0.030902 1.203996 32.792164 -54.632550 102773.925920
-0.089101 -0.045399 1.176100 54.534428 -77.386912 99504.570758
-0.080902 -0.058778 1.135135 81.479017 -94.252582 94731.977788
-0.070711 -0.070711 1.084376 112.603154 -102.494317 88929.344505
-0.058778 -0.080902 1.029190 144.732810 -102.050137 82762.111832
-0.045399 -0.089101 0.971973 176.894913 -91.355249 76500.464044
-0.030902 -0.095106 0.917672 204.036807 -71.605204 70730.333586
-0.015643 -0.098769 0.862619 223.927629 -43.681238 65049.893295
0.000000 -0.100000 0.825824 230.764848 -11.021859 61362.581113
0.015643 -0.098769 0.809879 221.949314 21.370051 59949.382437
0.030902 -0.095106 0.810693 198.638157 47.887264 60340.109881
0.045399 -0.089101 0.832664 163.196769 64.048061 63049.785341
0.058778 -0.080902 0.861644 125.488587 68.577008 66553.682482
0.070711 -0.070711 0.890636 89.100226 64.990051 70102.015951
0.080902 -0.058778 0.910191 56.305346 56.501790 72614.394530
0.089101 -0.045399 0.927474 33.511707 42.530561 74776.161100
0.095106 -0.030902 0.938637 18.172714 27.564659 76171.218737
0.098769 -0.015643 0.943513 7.826544 12.861378 76787.596331
1.018900 -0.080189 1.073175 152.182306 2.647181 84830.382045
0.605324 0.373875 1.066294 166.358517 -10.160903 84190.179900
0.549603 -0.333358 1.062370 164.719326 11.281435 84011.732233
-0.472821 -0.412832 1.108294 157.336665 -9.490218 88105.765514
-0.473887 0.403052 1.109166 156.711552 9.332937 88203.609249
0.199479 0.481585 1.064666 179.940871 0.784701 83514.485199
0.170789 -0.439421 1.059662 181.963365 -1.817805 83049.296160
-0.467039 0.027294 1.123790 146.554865 0.783566 89861.404816
0.458343 0.040246 1.034209 115.470264 -4.804178 83637.385064
-0.159228 0.384410 1.090089 166.786856 19.519049 86198.162043
-0.159763 -0.380071 1.091097 167.158381 -19.430889 86332.173198
0.314955 -0.193972 1.034504 150.546099 16.120513 82578.017636
-0.284309 -0.177063 1.125734 143.471603 -18.196248 90201.839777
0.282350 0.167768 1.023400 142.122091 -18.287218 81907.301812
0.142398 -0.235796 1.018954 183.872756 7.251280 79761.720362
0.272653 -0.016883 1.003264 82.399905 4.894385 81879.539187
-0.020974 -0.266503 1.047006 185.966894 -24.123183 82055.539479
0.112578 0.271787 1.030090 188.678143 0.919655 80475.089207
1.417860 0.328012 1.080287 162.261692 -3.060241 85031.494391
-0.287115 0.168595 1.125504 143.590536 18.650928 90194.178277
1.457830 -0.339509 1.080399 162.558982 2.862933 85035.846932
-0.023788 0.236645 1.036254 190.126674 27.819206 81080.237464
0.196778 -0.117893 1.000331 121.891775 25.429893 80607.858140
0.996374 0.326617 1.074783 160.362165 -7.478953 84752.268260
-0.253516 0.019952 1.151640 121.639640 1.870952 93405.481740
0.936381 -0.541081 1.076239 166.462211 6.841847 84706.923774
-0.114248 -0.188816 1.090248 160.035932 -44.218196 86894.206968
0.730129 -0.097741 1.060313 140.448763 5.716390 84546.274012
-0.109587 0.174196 1.089524 158.915261 48.177079 87031.343752
0.138391 0.160258 0.993160 162.714786 -22.769934 78531.288871
1.379720 0.008384 1.079453 159.752166 -0.082329 84993.751534
0.181408 0.073797 0.981324 82.875546 -24.414271 79776.688595
-0.199017 -0.082436 1.156801 119.339476 -25.693403 94246.199782
-0.168506 0.101803 1.145051 120.470227 38.133555 93229.659062
0.046420 -0.193352 0.983643 200.503234 -4.579706 76276.248289
-0.700915 -0.176538 1.119190 153.387942 -3.084300 89307.649665
0.861837 0.118494 1.067110 147.826400 -5.352153 84662.346036
-0.706427 0.212984 1.118783 153.488746 3.437198 89263.178311
1.658740 -0.628648 1.080508 164.378009 2.319907 85011.647503
0.046889 0.175512 0.963828 202.761523 0.060653 74568.165461
0.444490 -0.661547 1.073433 174.861526 3.146757 84358.034758
1.175660 -0.334071 1.078038 161.556545 5.300349 84893.299123
1.305580 -0.647245 1.079571 165.220267 3.784665 84931.650364
-0.681200 0.645174 1.110136 158.132432 6.486166 88295.062708
-0.682147 -0.646925 1.110129 158.262034 -6.351179 88293.701304
1.664120 0.126694 1.081145 162.560766 -0.784179 85094.968604
0.187658 -0.016452 0.981342 58.438834 7.767653 80228.544844
-0.032700 -0.682880 1.084498 171.740833 -6.756524 85502.207264
-0.301892 -0.620942 1.097122 164.111832 -9.748934 86868.894805
0.838424 0.649114 1.076403 169.309708 -5.828719 84667.158129
1.196490 0.628850 1.079072 165.614527 -4.508180 84892.734339
-0.294896 0.678154 1.095404 164.872613 8.877506 86674.789539
0.111301 -0.137182 0.962764 159.660347 30.409754 75852.669065
0.895976 -0.295295 1.072596 158.948703 8.558542 84704.612466
0.021504 0.408470 1.063762 180.990870 11.580747 83415.812570
-0.004841 0.692294 1.082013 172.287636 6.194838 85223.240303
1.674290 0.556160 1.080734 164.247074 -2.300020 85037.455144
0.498697 -0.149457 1.044441 137.329154 12.157145 83691.247359
1.158920 0.126001 1.076616 156.512895 -3.201375 84901.987902
0.465582 0.663825 1.073793 174.460256 -3.529305 84399.806483
1.701830 -0.162999 1.081193 162.938073 0.971860 85094.614352
0.389198 0.373076 1.059647 173.555353 -8.027783 83462.373025
0.356592 -0.388661 1.059389 175.728926 6.892578 83332.769476
-0.010486 -0.168150 0.978574 205.430943 -31.835207 75957.103013
0.657591 0.090686 1.054656 137.607051 -7.102275 84299.372821
-0.133766 -0.116038 1.130545 128.605686 -52.199794 91948.811815
-0.172520 -0.013578 1.186424 87.546485 -5.633579 98464.757111
0.147744 -0.062150 0.966575 72.052610 29.291651 78451.729806
-0.040884 0.162700 1.005641 193.595821 48.376775 78782.187663
0.025398 -0.431379 1.067160 180.061136 -10.344224 83786.611832
0.696388 -0.555623 1.073484 170.238250 7.105389 84478.073669
0.083724 0.138121 0.944351 174.162082 -28.094435 73626.169087
-0.710788 -0.415639 1.115154 155.724610 -5.428640 88855.258762
-0.463933 0.216716 1.117149 151.011573 7.671600 89107.867114
-0.491327 -0.166902 1.118320 150.700221 -6.176534 89232.321936
0.452600 0.206978 1.046500 149.487497 -13.495648 83464.098377
1.219990 -0.124977 1.077902 157.923246 2.433413 84938.184925
-0.079392 0.129555 1.060239 159.828435 69.238795 84863.478936
-0.318120 0.339142 1.107371 156.553475 15.167077 88045.380323
0.392734 -0.083578 1.027415 115.326098 10.850603 83134.876264
0.252544 -0.310474 1.047213 177.561173 7.119396 82315.624652
0.801486 0.318729 1.069816 160.032005 -9.695030 84538.229601
0.206156 -0.678051 1.075347 175.600000 -1.323703 84528.491052
0.251076 0.312721 1.047240 176.041753 -7.906252 82445.767918
-0.702192 0.421936 1.115074 155.790046 5.538742 88846.949327
0.112148 0.092928 0.946550 104.204603 -42.939416 75673.782777
-0.675872 0.017881 1.120302 152.280315 0.285931 89434.730994
0.058916 -0.145924 0.934825 196.198972 16.793436 72207.411681
1.715310 -0.408971 1.080988 163.745653 1.859978 85066.865221
-0.078837 -0.131553 1.058395 163.063185 -68.333852 84680.636123
-0.146547 -0.055313 1.177205 91.391327 -37.933852 97771.644440
-0.149821 0.037395 1.185078 80.975515 28.805852 98729.554874
0.726862 -0.269828 1.065413 156.930750 10.778413 84387.327382
-0.308731 -0.342428 1.106272 157.593786 -16.097935 87939.183048
0.231600 0.718560 1.076446 174.907817 1.042017 84629.931548
-0.110115 0.086938 1.134129 111.561796 69.686833 93388.269396
0.864648 -0.030799 1.066539 144.743042 1.418483 84717.776623
0.128386 0.052582 0.955437 54.628800 -31.683182 77543.365137
0.143802 0.011317 0.962297 33.828839 -7.316139 78608.869256
0.076928 -0.341859 1.048385 186.220518 -7.438915 82001.076652
1.213550 0.313696 1.078127 160.925238 -4.869548 84900.636530
-0.194749 0.274268 1.104006 158.308680 24.467921 87804.900085
1.763580 0.336032 1.081058 163.625035 -1.538071 85073.671713
1.436730 0.592179 1.080312 164.521148 -3.236352 85003.750004
0.353283 0.072572 1.024103 110.686493 -10.875729 83022.057389
0.428981 -0.263041 1.050885 160.170948 12.702186 83394.315801
0.583060 -0.040377 1.045887 126.454788 3.351648 84072.392221
1.770960 0.770083 1.079230 164.402782 -2.282014 84867.123392
-0.367387 -0.061166 1.132374 140.391786 -4.775477 90884.242313
1.515060 -0.138786 1.080686 161.598125 1.225408 85066.445960
0.225579 -0.195780 1.022429 157.958476 17.037622 81257.541935
1.010770 0.079370 1.072434 151.776600 -2.986434 84789.712188
-0.283363 0.509178 1.097606 163.386076 12.159041 86935.590130
1.040230 -0.242354 1.075276 157.956754 6.163491 84821.758376
0.011782 0.144681 0.924978 215.426487 13.585642 70877.924725
-0.089874 0.542283 1.082805 172.336587 10.851648 85338.113822
-0.486286 0.606805 1.105129 159.890433 8.505083 87745.238383
-0.209482 -0.269288 1.106040 155.813392 -24.463398 88042.929855
-0.494326 -0.604742 1.104987 160.193411 -8.396966 87729.411453
0.281138 -0.110223 1.015729 117.382567 19.148230 82147.546661
1.474450 0.161433 1.080362 161.236484 -1.600425 85045.855896
0.465808 -0.495327 1.068541 174.553677 6.041071 84043.162970
0.318264 -0.536366 1.067418 177.839287 2.329406 83815.927290
0.832310 -0.756431 1.077402 170.311604 4.505988 84728.103509
1.071800 -0.752861 1.078573 167.539314 4.148176 84832.681362
-0.197108 -0.167291 1.124351 141.760757 -30.774650 90280.860476
0.103525 -0.088985 0.934429 105.409876 45.849772 74461.483846
0.199123 0.233732 1.026393 172.364884 -12.489798 80994.314955
0.595165 0.218067 1.056589 151.138408 -11.741888 84090.906667
-0.108705 0.266780 1.081297 169.847175 30.323710 85503.535633
-0.110924 -0.535281 1.084946 171.254274 -11.673081 85584.852653
-0.569132 -0.297058 1.114798 154.199170 -6.538609 88825.849829
-0.824842 -0.057543 1.121404 153.666345 -0.796616 89549.440243
0.654251 0.577125 1.073577 171.358462 -6.491386 84457.571804
1.314580 -0.278230 1.079421 161.127940 3.667911 84989.395106
1.318730 -0.440549 1.079529 163.279524 4.143355 84958.247617
1.145610 -0.522224 1.078317 164.617760 5.424992 84856.077253
1.800820 -0.000560 1.081053 163.226729 0.026240 85074.423449
1.487560 -0.528003 1.080469 164.031897 2.993571 85021.402004
0.359673 0.526449 1.068048 176.853203 -3.411335 83899.257843
0.923434 -0.154725 1.070803 152.036827 6.154947 84760.207986
-0.576553 0.310198 1.114398 154.455577 6.731180 88781.579116
-0.576628 0.133927 1.119032 151.213583 3.444097 89303.353892
0.051110 0.540686 1.073285 177.359340 7.321780 84341.025580
-0.356278 0.079988 1.130593 140.265628 6.922902 90697.649774
1.012680 0.535921 1.076965 166.011407 -6.390513 84748.639893
0.782859 -0.417270 1.071534 164.954231 9.329088 84499.797435
1.598000 0.283752 1.081043 162.828496 -1.862069 85085.690210
0.637201 -0.182297 1.057039 146.445332 10.804227 84218.852894
1.135590 -0.025739 1.076026 155.002474 0.712317 84898.780160
0.264669 0.062322 1.003766 93.932534 -12.538559 81619.424733
-0.113186 -0.278647 1.082704 168.724906 -29.008396 85653.706648
0.754793 0.009161 1.060145 138.426463 -1.008809 84567.231919
0.626052 -0.772158 1.076464 172.530446 3.647418 84626.717498
0.122060 0.388602 1.054148 183.919607 4.275973 82506.090440
-0.826954 -0.286691 1.118773 154.820607 -3.086562 89255.217962
0.092531 -0.574718 1.073664 177.001566 -5.110910 84382.358984
-0.261440 -0.478753 1.096536 164.152416 -13.558135 86835.814301
-0.843420 0.329310 1.118540 155.103571 3.035551 89228.550909
-0.808052 0.094918 1.121002 153.483252 1.059742 89505.805198
1.311630 0.188755 1.078917 159.832152 -2.717671 84962.224789
0.345116 0.262402 1.046572 164.599833 -12.300160 82902.202768
1.544490 0.007652 1.080787 161.549639 -0.049513 85074.894262
-0.436140 -0.287265 1.113529 153.244877 -10.254390 88706.987517
1.818970 -0.749468 1.079123 164.266968 2.211406 84854.999753
0.030697 0.311424 1.045788 187.511025 12.882372 81743.718898
-0.827931 0.546291 1.113501 156.917705 4.281421 88666.842317
0.738903 0.188537 1.062772 148.920961 -9.466663 84475.427268
-0.843155 -0.568667 1.112560 157.330205 -4.214225 88561.262395
0.209086 0.142718 1.004451 136.363858 -23.247857 80456.813743
-0.031342 -0.131360 0.958231 204.815105 -54.989863 74531.277797
0.010707 -0.134638 0.902375 219.349415 -10.574201 68862.282490
1.007140 0.774257 1.078457 168.223228 -4.108804 84818.450459
-0.419160 -0.789513 1.101251 162.280355 -7.655602 87312.022310
-0.182013 0.181637 1.118148 146.512094 33.232138 89667.536632
0.130218 -0.029285 0.954110 33.919704 17.730992 77747.763704
0.492917 0.465074 1.068047 172.606140 -7.453682 84087.431513
1.028840 -0.387125 1.076127 162.392330 7.056819 84777.771568
1.836690 -0.567615 1.080135 164.140938 1.925349 84967.423833
1.585740 0.739399 1.079955 164.857226 -2.497755 84950.672463
-0.834419 0.736598 1.108109 158.786648 4.421003 88065.393198
-0.827062 -0.753694 1.107548 159.053159 -4.522229 88002.592122
1.288270 0.470539 1.079485 163.638422 -4.432562 84953.616009
0.649487 0.786271 1.076640 172.236775 -3.835420 84646.247554
1.488790 -0.746904 1.079974 165.078049 2.713651 84956.081158
0.054090 0.124127 0.900513 186.460534 -31.659005 69202.940403
0.068100 -0.265861 1.025015 191.777796 -6.131467 79924.743038
0.164088 -0.324222 1.043112 184.387870 1.295349 81643.439203
0.800337 -0.198781 1.067180 152.676927 8.898557 84576.435348
-0.196171 -0.783101 1.092195 166.975695 -7.075785 86322.586507
-0.566153 0.782786 1.105819 160.064224 7.163847 87814.927506
1.827040 -0.278643 1.080903 163.671086 1.237661 85054.846531
-0.031229 0.130077 0.962477 202.200045 55.208116 74833.552541
-0.050410 -0.356708 1.070276 177.752247 -18.668783 84198.485898
1.846830 0.180112 1.080793 163.569135 -0.813301 85043.305486
1.335020 0.786348 1.079533 165.956659 -3.080613 84912.715666
0.165811 -0.174489 1.004567 161.229932 19.816704 79588.186232
0.097286 0.210225 1.000591 189.853077 -6.448094 78073.307463
0.225552 -0.064543 0.998173 88.790269 18.289784 81291.767522
0.545017 0.118227 1.045961 132.745144 -9.262433 83922.650495
0.042983 0.241534 1.015908 196.238587 10.507064 79112.727233
0.966202 0.202224 1.072711 155.005911 -6.645847 84758.515175
-0.100172 -0.086883 1.123110 114.286519 -78.579985 92542.204876
-0.139148 -0.014102 1.201273 62.210716 -12.382646 101210.589649
-0.565119 -0.051409 1.120405 150.608778 -1.436887 89456.260401
0.737950 0.458190 1.072332 167.145135 -8.648350 84503.495644
0.338874 -0.280097 1.048436 167.299747 11.438077 82950.699719
0.403161 -0.174607 1.036773 141.912096 14.996890 82999.447612
0.657647 -0.392632 1.068187 166.362119 10.115562 84302.477267
0.068406 -0.110577 0.894451 162.222300 46.147866 69244.139112
0.104329 -0.192257 0.991835 186.305130 11.347973 77473.273870
1.538800 0.456517 1.080830 163.601738 -2.687270 85060.280928
-0.583061 -0.491850 1.110305 157.379898 -7.489524 88319.589759
0.498169 0.315220 1.058564 164.293028 -11.485795 83785.228978
1.607290 -0.277319 1.081005 162.870155 1.806975 85080.693046
0.903007 0.430305 1.074115 164.425648 -8.123241 84627.006364
1.833680 0.496743 1.080360 164.078428 -1.843170 84992.929751
0.356687 -0.007073 1.019694 98.442266 1.425242 82956.932332
-0.055971 -0.212512 1.049673 181.270559 -38.096109 82586.785562
-0.154957 0.804594 1.090634 167.764258 6.403084 86148.097261
-0.392381 -0.509610 1.102503 160.561259 -10.617542 87466.754037
-0.280650 -0.076422 1.140930 132.652193 -11.857408 91981.438811
0.292382 0.422110 1.060217 178.840109 -3.950459 83244.583726
-0.362310 0.236874 1.116693 150.450885 13.049160 89092.812956
0.477425 -0.060281 1.035680 118.200511 6.564164 83656.985585
-0.571339 0.506199 1.109471 157.781068 7.800883 88227.164367
-0.001670 0.190324 0.995419 202.400728 25.731671 77386.278589
-0.254097 0.101578 1.139927 130.886750 18.238826 91998.448634
1.105120 -0.143923 1.075754 155.973816 3.870011 84872.212876
-0.041322 0.303642 1.061878 180.564637 22.914329 83368.621127
0.339618 -0.814227 1.078121 173.775988 0.778819 84790.983204
1.251620 0.048907 1.078013 157.622758 -0.918402 84949.289004
0.222534 0.030713 0.988562 72.226304 -8.552618 80669.770090
1.344740 -0.121075 1.079389 159.707885 1.748186 84997.159670
1.114540 0.427041 1.077661 163.291530 -6.079037 84840.411628
0.085518 0.098307 0.916676 125.609486 -50.505196 72153.115062
0.367881 0.160229 1.033886 137.663057 -15.163004 82952.989604
0.098498 -0.819554 1.082669 172.146244 -2.799941 85283.153473
-0.123168 0.047261 1.187208 68.767819 49.037465 99803.716090
0.156355 0.116705 0.984950 123.128787 -31.743194 79088.127666
-0.622320 -0.803697 1.106293 159.768599 -6.646322 87865.763910
-0.065187 0.213853 1.054563 180.754478 37.934582 83079.921048
1.082250 0.225220 1.075427 157.370065 -5.632759 84827.022329
0.125512 0.029853 0.952643 32.572466 -20.477011 77546.929829
0.109250 0.066551 0.941095 67.108783 -42.858642 75781.113680
-0.422008 0.322333 1.111177 154.765196 10.671597 88441.075228
1.857330 -0.128940 1.080768 163.581093 0.601978 85039.997280
0.000769 -0.225009 1.018701 194.918647 -22.169683 79410.033259
-0.366106 0.430804 1.104598 159.033952 11.954759 87708.445962
0.267857 -0.399049 1.057027 179.964231 3.652599 82933.290873
0.150541 -0.105079 0.980516 117.510165 31.483931 78793.391396
0.178366 0.303964 1.042163 182.954870 -3.189935 81706.300454
0.684698 0.289971 1.065867 158.731969 -11.032032 84431.153445
0.957570 -0.000602 1.070606 148.721502 -0.005185 84804.849713
-0.389102 -0.158579 1.122780 146.620831 -9.478822 89769.756632
0.546023 -0.234379 1.054162 152.396959 12.778749 83868.170091
0.910557 -0.421905 1.074774 164.178395 8.068406 84684.320315
0.108646 -0.067352 0.938243 69.038274 41.968299 75534.617128
-0.099327 -0.456234 1.082971 172.304095 -14.659300 85412.186934
0.203233 -0.261736 1.034391 177.338803 9.012391 81335.921183
0.377543 0.824172 1.078191 173.838435 -1.192279 84798.878998
-0.082257 0.100174 1.079306 139.095486 82.460419 87624.847351
1.647650 -0.817679 1.079370 164.749113 2.317243 84883.891543
0.274315 -0.244239 1.038556 167.356481 12.665634 82168.343225
1.578790 -0.443754 1.080810 163.629911 2.497729 85055.754451
0.100168 0.832319 1.082668 172.210726 2.941426 85281.774902
-0.058378 -0.175054 1.040645 182.035325 -47.389797 82044.912399
0.207800 0.383790 1.054445 181.699116 -1.438666 82676.517314
0.342161 -0.133532 1.025475 127.168574 16.642190 82645.160674
-0.444939 0.141246 1.120893 148.172678 6.570971 89538.311408
1.315490 -0.872089 1.079074 166.316125 2.675576 84859.340654
-0.865059 -0.417290 1.115933 156.022340 -3.433064 88937.141632
-0.709884 -0.311897 1.116981 154.745194 -4.688461 89059.559897
1.679740 -0.030747 1.081198 162.677940 0.174244 85097.096247
0.174549 0.625117 1.073588 176.611253 2.481404 84352.744650
0.684989 -0.016163 1.055164 133.646818 0.499225 84420.065791
-0.067929 -0.111321 1.037768 162.766201 -81.933873 83119.201156
-0.204812 0.054196 1.159753 110.679188 18.112236 94697.041908
0.447176 -0.355236 1.060706 170.693686 9.490916 83664.596052
0.846429 0.828845 1.077814 170.250132 -3.663662 84749.080663
1.861410 -0.414902 1.080396 163.964882 1.587207 84996.934351
-0.870879 0.214659 1.120491 154.443132 1.989876 89445.760641
0.206502 -0.551495 1.068656 178.657161 -1.253600 83892.096790
-0.255029 0.410444 1.099123 162.003058 15.715873 87132.385160
-0.180163 0.484193 1.090327 167.750793 14.138843 86162.712451
0.813645 -0.560465 1.074815 168.502958 7.088342 84578.189501
0.549199 -0.612685 1.073220 173.577120 5.003694 84380.861509
0.273963 0.248535 1.039527 167.571351 -12.371413 82229.084926
-0.077800 0.379344 1.076678 174.013575 19.142380 84781.361450
-0.199919 0.619789 1.091118 167.296037 9.763211 86214.583868
0.322302 -0.062499 1.016827 102.614395 12.758709 82632.342176
0.234582 -0.149030 1.015067 137.502209 21.017552 81440.366000
0.813198 -0.106696 1.064556 144.304620 5.419399 84667.360995
-0.378616 0.829826 1.100082 162.832858 7.214962 87181.762682
0.858806 0.226441 1.069383 154.370713 -8.368286 84620.597453
0.444545 0.116584 1.036964 127.943343 -11.382031 83470.694959
-0.333240 -0.249690 1.116216 150.581614 -15.220002 89054.660383
-0.460705 -0.060951 1.123900 147.107787 -2.962305 89869.323078
-0.277215 0.247605 1.114391 151.744017 19.397987 88889.650122
-0.227554 -0.031927 1.160296 116.626135 -11.369006 94530.748575
0.095490 -0.438637 1.062488 181.741422 -5.997264 83309.084339
-0.122953 0.138911 1.110386 142.794172 52.495256 89545.032145
0.168009 0.039937 0.974727 61.723907 -20.225109 79502.674186
0.147569 0.213130 1.013463 179.568437 -11.156999 79584.272326
1.857420 0.614186 1.079747 164.192413 -2.026952 84924.181028
-0.121296 -0.049344 1.184924 73.363170 -51.462043 99597.874798
-0.147218 0.223568 1.100808 159.232284 33.428184 87685.696081
-0.406016 0.547474 1.102563 160.796082 9.765752 87467.663855
0.030283 -0.121803 0.867746 211.870633 18.182498 65701.343979
-0.686828 0.805040 1.106878 159.358372 6.211150 87930.109475
-0.174670 -0.667475 1.088975 168.764082 -8.670301 85983.277739
0.706520 -0.193608 1.061787 149.540627 10.115654 84408.981223
1.176520 -0.231735 1.077797 158.996212 4.460505 84932.161863
-0.009399 -0.124879 0.904276 220.537215 -33.109909 69130.980264
1.682720 0.412264 1.081073 163.689175 -1.942463 85077.150046
-0.872595 -0.155501 1.120925 154.222280 -1.525554 89494.157687
-0.591910 -0.143786 1.118754 151.813360 -3.278458 89268.181801
-0.011651 0.125196 0.906218 218.617645 35.761535 69206.841177
-0.046842 0.116295 0.981925 187.603258 73.613059 77159.057039
-0.007171 -0.554753 1.078498 174.927557 -8.714975 84896.076825
0.121279 -0.009545 0.951718 19.429733 7.435257 77624.014793
-0.126577 0.008229 1.212445 47.420188 10.971944 102983.490705
-0.229632 -0.361551 1.099668 161.919605 -18.640807 87240.660325
0.620317 -0.281341 1.061259 158.152859 12.046073 84118.949892
1.887620 0.866875 1.077863 164.093788 -2.343911 84715.413624
-0.262934 -0.121648 1.136221 135.712206 -18.041556 91466.022037
0.477742 -0.781240 1.076607 173.634601 2.463387 84638.149123
-0.344646 0.177000 1.122258 146.038201 13.134091 89748.386152
-0.692916 0.334882 1.116540 154.846890 4.997304 89011.700403
0.031014 0.120747 0.869134 208.762483 -19.870536 65773.586581
0.607898 -0.481299 1.070475 170.508636 8.130102 84309.665776
1.045500 0.021414 1.073535 152.182083 -0.946051 84834.320663
0.740268 0.108158 1.060246 142.043502 -6.992603 84524.136402
-0.324854 -0.000389 1.139454 133.869105 0.075871 91772.575554
0.550985 0.037920 1.042658 124.966721 -3.719900 83873.458347
0.037769 -0.308434 1.043668 187.927671 -11.577265 81594.032788
0.630556 -0.093634 1.052520 133.584759 6.775632 84347.822242
0.999810 -0.178181 1.073527 154.828130 5.786970 84815.216945
-0.388686 -0.418856 1.105988 158.404784 -11.304611 87859.750123
1.440840 -0.246540 1.080353 161.631180 2.438454 85045.165266
1.197530 0.791889 1.079187 166.710662 -3.429093 84880.919715
-0.718769 -0.081951 1.120378 152.913722 -1.476770 89440.129090
-0.579660 -0.397965 1.112419 156.003161 -7.165923 88556.698024
0.192189 -0.054473 0.986027 76.528381 19.730316 80341.211125
0.934771 -0.093421 1.070129 149.332797 3.940452 84777.962987
0.916729 0.319882 1.072988 160.011517 -8.390637 84673.394990
-0.550303 0.038594 1.120597 149.901141 1.064473 89481.987694
-0.063548 -0.824641 1.088928 168.985627 -5.393864 85964.877994
-0.675252 0.122007 1.119486 152.504002 2.311081 89344.399711
-0.679829 -0.517689 1.112457 157.002257 -6.226430 88554.798453
0.037244 -0.165795 0.952302 205.923846 -1.569042 73516.496324
0.233598 0.094692 0.999593 107.571650 -20.531051 80883.699924
0.077485 -0.090786 0.895591 119.616129 57.821257 70182.503451
-0.886025 0.440281 1.115785 156.251158 2.934719 88919.804570
-0.251824 0.323403 1.106323 157.180370 18.007790 87954.678876
0.308905 0.024913 1.010020 90.373857 -3.309441 82291.989818
1.381000 0.103377 1.079474 160.066494 -1.371361 84988.710983
0.117585 0.133250 0.968461 154.957560 -30.456946 76456.140170
-0.573861 0.402188 1.112597 155.779241 7.240842 88578.048542
0.298861 0.116395 1.019205 123.689066 -17.633270 82184.409442
1.281310 -0.072377 1.078665 158.520669 1.389816 84971.407124
0.081872 0.174014 0.973022 190.038134 -12.500057 75748.055777
1.858830 0.287598 1.080646 163.756824 -1.206920 85025.894939