TITLE = "Example: 2D Finite Element Data"
VARIABLES = "X", "Y", "rho", "u", "v", "p"
ZONE NODES=1230, ELEMENTS = 2340, DATAPACKING = POINT, ZONETYPE = FEQUADRILATERAL, SOLUTIONTIME=1.310752e-02
-1.000000 -1.000000 1.096530 161.676770 -2.343239 86776.301362
2.000000 -1.000000 1.073215 167.993391 3.548540 84452.725368
2.000000 1.000000 1.073477 167.891218 -3.464983 84478.955644
-1.000000 1.000000 1.096666 161.614115 2.547900 86791.563447
0.100000 0.000000 0.956784 6.044701 -1.173475 77954.216994
-0.850000 -1.000000 1.097629 161.142789 -3.292822 86898.514641
-0.700000 -1.000000 1.098769 160.822816 -4.210566 87025.465593
-0.550000 -1.000000 1.098866 161.160197 -4.702069 87037.452901
-0.400000 -1.000000 1.097661 162.495841 -5.107857 86907.661261
-0.250000 -1.000000 1.095412 164.742412 -4.820909 86665.654306
-0.100000 -1.000000 1.092589 167.255161 -4.054637 86361.695217
0.050000 -1.000000 1.088826 169.877924 -2.822788 85955.195376
0.200000 -1.000000 1.085325 172.039238 -1.482560 85578.573508
0.350000 -1.000000 1.082366 173.586854 -0.312638 85264.682330
0.500000 -1.000000 1.080102 174.509749 0.621742 85033.024879
0.650000 -1.000000 1.078495 174.861184 1.332638 84880.315594
0.800000 -1.000000 1.077286 174.771273 1.884912 84777.516783
0.950000 -1.000000 1.076228 174.324022 2.323993 84705.355471
1.100000 -1.000000 1.074834 173.789559 2.734100 84590.006991
1.250000 -1.000000 1.073978 173.091129 3.034364 84524.326834
1.400000 -1.000000 1.073225 172.266480 3.265443 84462.924911
1.550000 -1.000000 1.072542 171.354604 3.445505 84396.256056
1.700000 -1.000000 1.072314 170.303333 3.567560 84370.779728
1.850000 -1.000000 1.072506 169.067720 3.614243 84381.179072
2.000000 -0.900000 1.074535 167.730973 3.788650 84614.616119
2.000000 -0.800000 1.073764 167.498297 4.667773 84570.198796
2.000000 -0.700000 1.071927 167.121072 5.535945 84429.884327
2.000000 -0.600000 1.069378 166.520750 6.198291 84238.992633
2.000000 -0.500000 1.065943 165.643693 6.540515 83992.516307
2.000000 -0.400000 1.062434 164.665895 6.357836 83744.202958
2.000000 -0.300000 1.059211 163.529270 5.578972 83520.988087
2.000000 -0.200000 1.056075 162.740283 4.196506 83287.892443
2.000000 -0.100000 1.054327 162.074501 2.270141 83171.915378
2.000000 0.000000 1.054066 161.490583 -0.001529 83180.886025
2.000000 0.100000 1.054470 162.001155 -2.243820 83189.753841
2.000000 0.200000 1.055792 162.922399 -4.149264 83252.637800
2.000000 0.300000 1.058373 163.692802 -5.586485 83433.243388
2.000000 0.400000 1.062536 164.485213 -6.423764 83755.586209
2.000000 0.500000 1.066308 165.667657 -6.669617 84015.902677
2.000000 0.600000 1.069365 166.463077 -6.366953 84242.167038
2.000000 0.700000 1.071836 167.167836 -5.669506 84424.487131
2.000000 0.800000 1.073943 167.776606 -4.660915 84584.239484
2.000000 0.900000 1.074778 167.807659 -3.725535 84636.288101
1.850000 1.000000 1.073053 168.969746 -3.553492 84443.738661
1.700000 1.000000 1.072950 170.380956 -3.529217 84445.274132
1.550000 1.000000 1.072914 171.520605 -3.451138 84435.051444
1.400000 1.000000 1.073456 172.409508 -3.200676 84482.083903
1.250000 1.000000 1.074635 173.231259 -2.873141 84584.990075
1.100000 1.000000 1.075309 174.038335 -2.615601 84622.125671
0.950000 1.000000 1.076001 174.626030 -2.314259 84663.427128
0.800000 1.000000 1.076961 174.934925 -1.934428 84740.215075
0.650000 1.000000 1.078277 174.987073 -1.410974 84860.433415
0.500000 1.000000 1.079821 174.693692 -0.700244 85007.538218
0.350000 1.000000 1.081616 173.820388 0.538914 85184.719582
0.200000 1.000000 1.085245 172.040890 1.676825 85566.613858
0.050000 1.000000 1.088975 169.830163 2.684369 85968.132004
-0.100000 1.000000 1.092458 166.967768 4.063213 86343.454225
-0.250000 1.000000 1.095855 164.363531 4.694349 86711.790388
-0.400000 1.000000 1.097847 162.468288 5.194985 86927.686849
-0.550000 1.000000 1.099051 161.125569 4.827450 87058.034329
-0.700000 1.000000 1.098725 160.760156 4.296765 87020.730036
-0.850000 1.000000 1.097279 161.107996 3.471320 86859.902648
-1.000000 0.900000 1.098276 161.499174 2.047401 86969.583459
-1.000000 0.800000 1.100377 161.033752 1.703850 87202.281869
-1.000000 0.700000 1.102315 160.496709 1.547084 87417.106389
-1.000000 0.600000 1.104354 159.909146 1.477920 87643.571244
-1.000000 0.500000 1.106109 159.332508 1.395145 87838.482483
-1.000000 0.400000 1.107897 158.783198 1.233226 88037.164053
-1.000000 0.300000 1.109333 158.336065 0.925832 88196.655043
-1.000000 0.200000 1.110591 157.966208 0.677023 88336.558808
-1.000000 0.100000 1.111440 157.604568 0.359478 88431.217160
-1.000000 0.000000 1.111724 157.562005 -0.097461 88462.741615
-1.000000 -0.100000 1.111381 157.710127 -0.382538 88424.526932
-1.000000 -0.200000 1.110526 157.973781 -0.694041 88329.374340
-1.000000 -0.300000 1.109286 158.350382 -1.010668 88191.534523
-1.000000 -0.400000 1.107722 158.845731 -1.126915 88017.597870
-1.000000 -0.500000 1.105954 159.398635 -1.340293 87821.234441
-1.000000 -0.600000 1.104042 160.014668 -1.453154 87608.832417
-1.000000 -0.700000 1.102077 160.573276 -1.519391 87390.681878
-1.000000 -0.800000 1.100253 161.089349 -1.649134 87188.434289
-1.000000 -0.900000 1.098152 161.572901 -1.867846 86955.675173
0.098769 0.015643 0.954134 9.817420 -14.987228 77608.755946
0.095106 0.030902 0.948864 18.552739 -30.007540 76923.309500
0.089101 0.045399 0.937903 34.042701 -44.536018 75536.787625
0.080902 0.058778 0.923281 56.676242 -57.240316 73672.900136
0.070711 0.070711 0.901366 86.796677 -65.823700 70940.753842
0.058778 0.080902 0.878429 122.087700 -68.067737 68061.086759
0.045399 0.089101 0.851325 159.901219 -61.448660 64733.561313
0.030902 0.095106 0.828150 192.806756 -46.827312 61956.480748
0.015643 0.098769 0.827184 215.744551 -19.790063 61579.791077
-0.000000 0.100000 0.840763 225.472458 12.064507 62756.880767
-0.015643 0.098769 0.874602 219.564356 43.493660 66185.462266
-0.030902 0.095106 0.919962 201.995539 70.493161 70898.920359
-0.045399 0.089101 0.975468 175.304664 90.463436 76836.125485
-0.058778 0.080902 1.035064 143.881686 100.422852 83342.283432
-0.070711 0.070711 1.092430 110.702662 101.193219 89742.234827
-0.080902 0.058778 1.138900 80.342463 91.897380 95013.515769
-0.089101 0.045399 1.176798 53.030563 77.144335 99454.973909
-0.095106 0.030902 1.208453 31.700287 56.142860 103221.637686
-0.098769 0.015643 1.227317 17.606354 29.586021 105505.537358
-0.100000 -0.000000 1.235217 12.920942 0.694329 106449.901904
-0.098769 -0.015643 1.225225 20.221294 -27.731563 105198.223143
-0.095106 -0.030902 1.209437 32.648385 -54.463877 103345.090870
-0.089101 -0.045399 1.181675 54.269717 -77.062914 100084.849244
-0.080902 -0.058778 1.140973 81.036071 -93.771279 95332.877034
-0.070711 -0.070711 1.090631 111.900334 -101.877002 89564.793610
-0.058778 -0.080902 1.036060 143.687552 -101.311663 83450.201976
-0.045399 -0.089101 0.979664 175.378758 -90.564364 77259.443161
-0.030902 -0.095106 0.926413 201.943784 -70.838233 71580.712796
-0.015643 -0.098769 0.872677 221.155071 -43.083132 66015.142988
0.000000 -0.100000 0.837234 227.325254 -10.813628 62450.321074
0.015643 -0.098769 0.822367 218.088377 21.050140 61136.786595
0.030902 -0.095106 0.823673 194.783414 46.990277 61571.308002
0.045399 -0.089101 0.845383 159.883039 62.790259 64247.138186
0.058778 -0.080902 0.873455 122.986171 67.280756 67642.454812
0.070711 -0.070711 0.901414 87.439331 63.869401 71060.543060
0.080902 -0.058778 0.920194 55.373524 55.668370 73463.921208
0.089101 -0.045399 0.936939 33.037746 42.020233 75544.235489
0.095106 -0.030902 0.947782 17.966791 27.304684 76886.438146
0.098769 -0.015643 0.952506 7.766075 12.769401 77475.924277
1.018900 -0.080189 1.053678 138.717625 2.310370 84597.089048
0.605324 0.373875 1.064633 164.253498 -5.816553 84352.594034
0.549603 -0.333358 1.061670 162.111206 7.066683 84224.848805
-0.472821 -0.412832 1.109849 157.395979 -9.035481 88266.813622
-0.473887 0.403052 1.110927 156.752039 8.872195 88386.903160
0.199479 0.481585 1.069410 178.345757 3.440341 84015.505776
0.170789 -0.439421 1.065051 180.121946 -4.257795 83608.581522
-0.467039 0.027294 1.127376 146.608664 0.750141 90248.658552
0.458343 0.040246 1.032272 109.969084 -4.085796 83798.895558
-0.159228 0.384410 1.096319 165.321899 20.022552 86862.283065
-0.159763 -0.380071 1.097137 165.731946 -20.016311 86975.196405
0.314955 -0.193972 1.038457 146.934717 13.523096 83022.188913
-0.284309 -0.177063 1.131451 142.724136 -18.319513 90822.487635
0.282350 0.167768 1.027995 138.574056 -16.211827 82389.620895
0.142398 -0.235796 1.026142 181.013236 5.404539 80484.777426
0.272653 -0.016883 1.008182 80.264548 4.494429 82298.329670
-0.020974 -0.266503 1.054069 183.915283 -24.825400 82783.589401
0.112578 0.271787 1.037145 186.029243 2.581817 81191.956361
1.417860 0.328012 1.063740 157.895870 -4.955651 84455.062755
-0.287115 0.168595 1.131290 142.879272 18.628599 90822.574049
1.457830 -0.339509 1.064133 159.150688 4.987828 84420.533405
-0.023788 0.236645 1.043704 187.931248 28.251753 81844.751323
0.196778 -0.117893 1.007128 119.120714 24.024582 81210.973087
0.996374 0.326617 1.062969 156.074923 -5.409522 84597.386529
-0.253516 0.019952 1.157374 121.082942 1.782989 94034.005990
0.936381 -0.541081 1.071301 168.426686 4.390281 84648.212872
-0.114248 -0.188816 1.096583 158.741450 -44.295271 87561.435345
0.730129 -0.097741 1.048145 130.352336 4.023245 84470.448004
-0.109587 0.174196 1.096017 157.595760 48.022762 87713.516364
0.138391 0.160258 1.000988 159.639638 -21.449153 79285.190143
1.379720 0.008384 1.056626 147.136792 0.060744 84367.015042
0.181408 0.073797 0.988775 81.273558 -23.627921 80368.965727
-0.199017 -0.082436 1.162533 118.690333 -25.732274 94871.124835
-0.168506 0.101803 1.150940 119.749275 37.919038 93865.773164
0.046420 -0.193352 0.992397 197.531844 -5.486561 77153.232525
-0.700915 -0.176538 1.114202 155.526107 -2.529664 88742.660070
0.861837 0.118494 1.052078 136.528092 -3.922745 84568.722843
-0.706427 0.212984 1.113809 155.626288 2.799845 88699.603933
1.658740 -0.628648 1.070366 167.703015 5.028583 84417.794857
0.046889 0.175512 0.973260 199.565453 0.785967 75504.361655
0.444490 -0.661547 1.075652 175.220710 0.051850 84638.473555
1.175660 -0.334071 1.064779 158.407152 5.186558 84588.417387
1.305580 -0.647245 1.072283 169.228134 4.263416 84628.415571
-0.681200 0.645174 1.104076 159.825583 4.901487 87615.329871
-0.682147 -0.646925 1.103927 159.930481 -4.790749 87598.695318
1.664120 0.126694 1.058620 154.685549 -2.298646 84036.732439
0.187658 -0.016452 0.988622 57.432186 7.404609 80783.934760
-0.032700 -0.682880 1.088903 170.318900 -7.904099 85978.625301
-0.301892 -0.620942 1.099786 163.234199 -9.618055 87153.451463
0.838424 0.649114 1.074070 172.256087 -3.015401 84674.402216
1.196490 0.628850 1.072578 169.538887 -4.103694 84660.022775
-0.294896 0.678154 1.098188 163.791609 8.750414 86973.456753
0.111301 -0.137182 0.971733 156.583920 29.159155 76708.604807
0.895976 -0.295295 1.062188 154.391096 5.894075 84618.712397
0.021504 0.408470 1.070070 179.031474 12.970616 84074.138296
-0.004841 0.692294 1.086638 170.795538 7.440003 85723.248785
1.674290 0.556160 1.068919 166.620978 -5.353187 84344.833080
0.498697 -0.149457 1.041941 131.718266 9.347982 83853.741628
1.158920 0.126001 1.056231 144.255651 -3.193525 84548.230476
0.465582 0.663825 1.075730 174.910870 -0.308805 84661.561835
1.701830 -0.162999 1.059273 156.548436 3.265449 83985.171528
0.389198 0.373076 1.062508 171.430478 -4.260930 83841.412989
0.356592 -0.388661 1.062908 173.883626 3.271959 83738.630963
-0.010486 -0.168150 0.987123 202.860214 -31.937207 76811.923832
0.657591 0.090686 1.045698 128.844146 -5.200268 84305.858490
-0.133766 -0.116038 1.136427 127.770872 -52.088863 92575.120718
-0.172520 -0.013578 1.191996 87.094753 -5.723263 99072.345155
0.147744 -0.062150 0.974797 70.648835 28.506507 79113.125367
-0.040884 0.162700 1.013667 191.453579 48.120612 79591.725088
0.025398 -0.431379 1.073179 178.214765 -11.871849 84415.285623
0.696388 -0.555623 1.072355 171.447831 3.385554 84596.840365
0.083724 0.138121 0.954046 170.996711 -27.068939 74559.387744
-0.710788 -0.415639 1.109027 157.910347 -4.185955 88165.730553
-0.463933 0.216716 1.120224 151.107928 7.442319 89437.386142
-0.491327 -0.166902 1.121044 150.868830 -5.958629 89522.990372
0.452600 0.206978 1.046187 144.869666 -10.288327 83716.431431
1.219990 -0.124977 1.056974 145.829905 2.986519 84519.984051
-0.079392 0.129555 1.067148 158.466917 68.748640 85573.243082
-0.318120 0.339142 1.112708 155.662175 15.254399 88620.913084
0.392734 -0.083578 1.028347 110.994502 9.205418 83396.634510
0.252544 -0.310474 1.052278 175.066031 4.199464 82846.222652
0.801486 0.318729 1.062039 156.124463 -6.104294 84533.340194
0.206156 -0.678051 1.079236 174.743688 -3.589230 84955.872833
0.251076 0.312721 1.052057 173.368374 -5.073396 82964.676438
-0.702192 0.421936 1.109184 157.874919 4.322328 88183.515875
0.112148 0.092928 0.955639 102.272841 -42.068138 76463.864092
-0.675872 0.017881 1.116548 154.202324 0.205777 89006.028163
0.058916 -0.145924 0.944971 192.782346 15.862833 73202.338147
1.715310 -0.408971 1.064866 163.063704 5.494994 84153.349460
-0.078837 -0.131553 1.065078 161.731790 -68.008225 85365.268769
-0.146547 -0.055313 1.182773 90.892449 -37.871301 98371.645856
-0.149821 0.037395 1.190697 80.532491 28.555660 99337.397870
0.726862 -0.269828 1.058547 152.358332 7.131584 84402.668732
-0.308731 -0.342428 1.111498 156.676951 -16.283883 88501.657483
0.231600 0.718560 1.079877 174.208449 3.223155 85008.376464
-0.110115 0.086938 1.140224 110.805863 69.200889 94029.207430
0.864648 -0.030799 1.049850 131.810848 0.937351 84565.818698
0.128386 0.052582 0.964130 53.796801 -31.174809 78232.374547
0.143802 0.011317 0.970730 33.500396 -7.226810 79247.519749
0.076928 -0.341859 1.054927 184.031119 -9.126267 82672.568765
1.213550 0.313696 1.062499 155.749003 -5.007287 84525.421747
-0.194749 0.274268 1.110209 157.121676 24.686028 88469.394383
1.763580 0.336032 1.062746 161.464665 -5.253175 84014.856423
1.436730 0.592179 1.070860 167.677746 -4.633184 84559.054111
0.353283 0.072572 1.026098 106.834151 -9.706333 83324.007183
0.428981 -0.263041 1.052208 156.652769 9.026483 83699.968831
0.583060 -0.040377 1.039266 118.640740 2.524004 84117.019122
1.770960 0.770083 1.073203 169.092908 -4.413476 84538.008819
-0.367387 -0.061166 1.137631 139.958600 -4.810926 91458.187301
1.515060 -0.138786 1.058921 152.088506 2.784047 84275.204513
0.225579 -0.195780 1.028331 154.738663 14.970831 81841.794081
1.010770 0.079370 1.053059 138.463876 -2.473749 84549.812583
-0.283363 0.509178 1.102489 162.223239 12.360430 87461.716599
1.040230 -0.242354 1.060291 150.809931 5.084897 84606.144199
0.011782 0.144681 0.935164 212.212845 13.696384 71878.701693
-0.089874 0.542283 1.088561 170.650526 11.896300 85954.265426
-0.486286 0.606805 1.104128 160.200446 7.550052 87625.094795
-0.209482 -0.269288 1.112044 154.701424 -24.752009 88686.629770
-0.494326 -0.604742 1.103665 160.493619 -7.468146 87573.978908
0.281138 -0.110223 1.020566 114.189966 17.467608 82605.866851
1.474450 0.161433 1.059243 151.699458 -2.970922 84339.341013
0.465808 -0.495327 1.070525 173.984426 2.104095 84327.691563
0.318264 -0.536366 1.071153 176.799203 -0.858042 84227.228646
0.832310 -0.756431 1.076367 173.869799 2.303708 84771.806568
1.071800 -0.752861 1.075002 172.362524 3.174725 84727.381595
-0.197108 -0.167291 1.130294 140.859827 -30.891187 90921.800004
0.103525 -0.088985 0.943907 103.337688 44.866045 75297.135063
0.199123 0.233732 1.032637 169.297241 -10.509176 81625.825733
0.595165 0.218067 1.052362 145.625656 -8.196734 84208.412968
-0.108705 0.266780 1.087851 168.307830 30.613977 86194.195951
-0.110924 -0.535281 1.090397 169.695183 -12.609538 86167.383100
-0.569132 -0.297058 1.114355 155.065993 -5.934968 88765.559011
-0.824842 -0.057543 1.112938 156.590990 -0.605692 88599.386062
0.654251 0.577125 1.073235 172.480827 -2.691897 84610.296943
1.314580 -0.278230 1.062647 155.317920 4.857610 84533.652012
1.318730 -0.440549 1.067674 163.103553 5.058735 84562.461538
1.145610 -0.522224 1.070150 166.477278 4.782709 84631.309320
1.800820 -0.000560 1.057125 156.989858 0.127818 83720.250036
1.487560 -0.528003 1.069017 165.732487 5.016892 84484.761715
0.359673 0.526449 1.071202 175.941303 0.045293 84263.553421
0.923434 -0.154725 1.055445 141.908437 4.647076 84616.007981
-0.576553 0.310198 1.113602 155.397648 6.065205 88681.790279
-0.576628 0.133927 1.119004 152.193886 3.180944 89288.407686
0.051110 0.540686 1.078762 175.651484 9.004970 84921.072407
-0.356278 0.079988 1.135906 139.839680 6.864022 91277.792712
1.012680 0.535921 1.070952 168.192304 -4.329356 84621.491327
0.782859 -0.417270 1.066687 163.951912 5.594433 84524.268435
1.598000 0.283752 1.062091 158.002514 -4.524341 84219.414175
0.637201 -0.182297 1.050264 139.958453 7.574533 84246.976497
1.135590 -0.025739 1.054275 140.751918 0.791897 84537.716092
0.264669 0.062322 1.008842 91.512063 -11.752062 82061.503154
-0.113186 -0.278647 1.089120 167.220984 -29.449953 86329.772048
0.754793 0.009161 1.046775 127.110598 -0.834279 84477.764597
0.626052 -0.772158 1.077347 174.690784 1.193082 84800.252998
0.122060 0.388602 1.060217 181.804351 6.302484 83132.883022
-0.826954 -0.286691 1.110291 157.659369 -2.197728 88304.534352
0.092531 -0.574718 1.078626 175.494753 -7.032392 84910.746212
-0.261440 -0.478753 1.101534 162.970253 -13.907298 87372.684827
-0.843420 0.329310 1.109812 157.939297 2.088547 88251.060565
-0.808052 0.094918 1.113186 156.306009 0.750799 88627.392369
1.311630 0.188755 1.058540 149.922985 -3.529256 84431.415461
0.345116 0.262402 1.049745 161.272809 -9.139641 83321.462608
1.544490 0.007652 1.057986 150.909410 -0.012848 84230.321442
-0.436140 -0.287265 1.117092 152.994683 -10.091518 89089.619215
1.818970 -0.749468 1.072489 168.393498 4.743302 84480.651567
0.030697 0.311424 1.052744 185.265628 14.096617 82459.975691
-0.827931 0.546291 1.105708 159.314787 2.917878 87795.117808
0.738903 0.188537 1.053341 141.106909 -6.556153 84483.196036
-0.843155 -0.568667 1.104965 159.627770 -2.827431 87712.419607
0.209086 0.142718 1.010827 133.322567 -21.754141 81047.350386
-0.031342 -0.131360 0.966723 202.551976 -54.557765 75369.089241
0.010707 -0.134638 0.912775 216.040188 -10.688006 69875.936079
1.007140 0.774257 1.075704 173.136110 -2.844531 84750.304897
-0.419160 -0.789513 1.099486 162.214376 -6.620817 87110.252225
-0.182013 0.181637 1.124240 145.509777 33.202758 90321.388798
0.130218 -0.029285 0.962827 33.490558 17.435391 78418.723098
0.492917 0.465074 1.069174 171.729668 -3.292586 84345.633957
1.028840 -0.387125 1.066127 160.836293 5.392814 84608.814537
1.836690 -0.567615 1.068541 166.455593 5.891323 84231.569981
1.585740 0.739399 1.072984 169.921140 -4.133886 84559.924113
-0.834419 0.736598 1.101821 160.498749 3.059209 87363.362070
-0.827062 -0.753694 1.101426 160.605110 -3.165376 87319.534877
1.288270 0.470539 1.068436 164.134246 -5.024535 84583.012247
0.649487 0.786271 1.077148 174.589622 -1.363378 84794.505262
1.488790 -0.746904 1.073105 170.134187 4.010697 84595.574209
0.054090 0.124127 0.911549 183.073485 -30.787669 70264.892698
0.068100 -0.265861 1.032444 189.211029 -7.536486 80679.231263
0.164088 -0.324222 1.049325 182.010645 -0.987934 82278.507711
0.800337 -0.198781 1.056194 145.467572 6.149940 84507.784436
-0.196171 -0.783101 1.094423 165.916299 -7.184907 86562.406006
-0.566153 0.782786 1.101209 160.863369 5.645020 87297.774283
1.827040 -0.278643 1.061117 161.243630 5.046727 83854.522082
-0.031229 0.130077 0.971200 199.908417 54.686569 75698.001665
-0.050410 -0.356708 1.076706 175.960913 -19.607974 84870.845663
1.846830 0.180112 1.058233 159.715360 -3.556776 83661.329995
1.335020 0.786348 1.074400 171.671274 -3.413051 84666.629526
0.165811 -0.174489 1.011810 158.122765 18.164189 80290.337122
0.097286 0.210225 1.008660 186.806436 -5.095844 78880.006086
0.225552 -0.064543 1.004331 86.658557 17.254073 81796.031180
0.545017 0.118227 1.041099 125.879937 -7.164487 84023.116944
0.042983 0.241534 1.023776 193.558220 11.495987 79910.246043
0.966202 0.202224 1.057100 145.810603 -5.103675 84584.355318
-0.100172 -0.086883 1.129043 113.570344 -78.211855 93158.322656
-0.139148 -0.014102 1.206751 61.889515 -12.448002 101800.019993
-0.565119 -0.051409 1.120923 151.447734 -1.345086 89501.973783
0.737950 0.458190 1.069029 166.845564 -4.616543 84577.765672
0.338874 -0.280097 1.051993 164.285884 8.154266 83377.137876
0.403161 -0.174607 1.038245 137.600537 12.147572 83310.788222
0.657647 -0.392632 1.066015 164.841625 5.889724 84442.708428
0.068406 -0.110577 0.905521 159.040080 45.015836 70292.632045
0.104329 -0.192257 1.000160 183.201883 9.919169 78301.584414
1.538800 0.456517 1.066742 163.320359 -5.233296 84397.358277
-0.583061 -0.491850 1.107645 158.430743 -6.410666 88014.762885
0.498169 0.315220 1.058595 161.141030 -7.481649 84037.366314
1.607290 -0.277319 1.061866 158.262547 4.639928 84189.124966
0.903007 0.430305 1.067049 163.766168 -4.964055 84554.221320
1.833680 0.496743 1.066723 165.372059 -6.082297 84126.623506
0.356687 -0.007073 1.021604 94.909273 1.186943 83240.032616
-0.055971 -0.212512 1.056677 179.463720 -38.333280 83310.537983
-0.154957 0.804594 1.093357 166.496392 6.672282 86442.552564
-0.392381 -0.509610 1.105230 160.013454 -10.384811 87756.966750
-0.280650 -0.076422 1.146656 132.045453 -11.940924 92607.399096
0.292382 0.422110 1.064388 177.047900 -0.691394 83698.906101
-0.362310 0.236874 1.121839 149.882824 13.002007 89650.407194
0.477425 -0.060281 1.033292 112.581613 5.262292 83793.128671
-0.571339 0.506199 1.107101 158.758752 6.744759 87954.403121
-0.001670 0.190324 1.003873 199.762639 25.999936 78237.732612
-0.254097 0.101578 1.145745 130.254290 18.149776 92633.383323
1.105120 -0.143923 1.056636 144.466686 3.720302 84583.409398
-0.041322 0.303642 1.068678 178.666095 23.597674 84077.439603
0.339618 -0.814227 1.080639 174.039170 -1.222654 85088.898465
1.251620 0.048907 1.055612 143.999270 -1.021067 84483.609512
0.222534 0.030713 0.995111 70.782404 -8.241363 81181.759905
1.344740 -0.121075 1.057829 148.173351 2.762160 84446.132949
1.114540 0.427041 1.067475 162.740298 -5.094751 84612.458008
0.085518 0.098307 0.926820 123.289840 -49.508076 73074.414518
0.367881 0.160229 1.036071 133.473103 -12.762583 83306.545495
0.098498 -0.819554 1.085723 171.324692 -4.089988 85622.304021
-0.123168 0.047261 1.192883 68.363036 48.662240 100409.273596
0.156355 0.116705 0.992616 120.620269 -30.652829 79763.755831
-0.622320 -0.803697 1.100833 160.798235 -5.072565 87255.290488
-0.065187 0.213853 1.061640 178.913011 38.053140 83812.497710
1.082250 0.225220 1.058558 148.498605 -4.843422 84569.870911
0.125512 0.029853 0.961386 32.219448 -20.228401 78220.617210
0.109250 0.066551 0.950236 66.018941 -42.207169 76536.220934
-0.422008 0.322333 1.114866 154.427225 10.454330 88837.278398
1.857330 -0.128940 1.057404 159.407485 2.839162 83600.471288
0.000769 -0.225009 1.026473 192.531802 -22.807022 80200.934269
-0.366106 0.430804 1.108786 158.295232 11.887745 88158.801680
0.267857 -0.399049 1.061737 178.087213 0.564361 83428.705610
0.150541 -0.105079 0.988382 115.005293 30.300271 79486.897703
0.178366 0.303964 1.048260 180.389400 -0.957283 82331.666338
0.684698 0.289971 1.060715 154.421261 -7.060306 84526.526059
0.957570 -0.000602 1.051693 134.769327 -0.043673 84603.888528
-0.389102 -0.158579 1.127632 146.210362 -9.474744 90296.560719
0.546023 -0.234379 1.051631 147.725608 9.046317 84035.251445
0.910557 -0.421905 1.067905 163.821056 5.257556 84616.114619
0.108646 -0.067352 0.947480 67.783866 41.236356 76303.790729
-0.099327 -0.456234 1.088878 170.707914 -15.581456 86039.462630
0.203233 -0.261736 1.040469 174.527709 6.649653 81954.656501
0.377543 0.824172 1.080229 174.258959 0.754695 85046.154258
-0.082257 0.100174 1.086001 138.014743 81.832863 88311.945279
1.647650 -0.817679 1.073372 170.030990 3.843679 84553.955467
0.274315 -0.244239 1.043481 164.252566 9.999741 82686.951471
1.578790 -0.443754 1.066495 163.473149 5.292178 84353.046437
0.100168 0.832319 1.085878 171.205821 4.237923 85634.448617
-0.058378 -0.175054 1.047759 180.258760 -47.386708 82774.542922
0.207800 0.383790 1.059716 179.581071 1.213581 83224.958364
0.342161 -0.133532 1.028534 123.288454 14.489028 83016.966477
-0.444939 0.141246 1.124714 148.128869 6.441113 89951.338103
1.315490 -0.872089 1.074412 172.336478 3.165096 84615.801397
-0.865059 -0.417290 1.107549 158.721939 -2.307458 87999.233872
-0.709884 -0.311897 1.111209 156.964338 -3.707866 88408.759592
1.679740 -0.030747 1.057956 154.473143 0.639963 83970.275765
0.174549 0.625117 1.077909 175.400545 4.731507 84817.462987
0.684989 -0.016163 1.044132 123.559313 0.311837 84372.241414
-0.067929 -0.111321 1.044672 161.457505 -81.396217 83815.813710
-0.204812 0.054196 1.165505 110.110009 17.962375 95325.562721
0.447176 -0.355236 1.062666 168.608919 5.472875 83982.394342
0.846429 0.828845 1.076814 174.383683 -2.068980 84778.250240
1.861410 -0.414902 1.064301 164.252492 6.064792 83960.824822
-0.870879 0.214659 1.111351 157.430151 1.370395 88422.077907
0.206502 -0.551495 1.073209 177.291883 -3.828990 84377.214151
-0.255029 0.410444 1.104785 160.794276 15.996119 87741.144355
-0.180163 0.484193 1.096181 166.234469 14.738344 86790.504377
0.813645 -0.560465 1.072033 170.384210 3.853134 84612.638110
0.549199 -0.612685 1.074425 174.404298 1.465712 84596.404911
0.273963 0.248535 1.044102 164.401961 -9.706904 82733.172581
-0.077800 0.379344 1.083102 172.307754 19.900204 85459.215665
-0.199919 0.619789 1.095708 165.858762 10.201391 86709.859603
0.322302 -0.062499 1.020144 99.392055 11.501738 82985.361938
0.234582 -0.149030 1.020987 134.313260 19.222891 81998.614567
0.813198 -0.106696 1.050319 133.417979 3.827816 84539.015587
-0.378616 0.829826 1.098422 162.615429 6.174332 86992.140527
0.858806 0.226441 1.056998 146.716031 -5.812923 84537.724897
0.444545 0.116584 1.035999 122.687948 -9.330816 83687.599545
-0.333240 -0.249690 1.121504 149.865027 -15.324734 89626.933763
-0.460705 -0.060951 1.127617 147.102815 -2.923177 90270.958441
-0.277215 0.247605 1.120238 150.857650 19.479779 89521.375563
-0.227554 -0.031927 1.166014 116.048509 -11.437709 95157.342158
0.095490 -0.438637 1.068263 179.863307 -7.962746 83909.308080
-0.122953 0.138911 1.116632 141.738631 52.234102 90206.030363
0.168009 0.039937 0.982533 60.729009 -19.708342 80103.536376
0.147569 0.213130 1.020738 176.509354 -9.509485 80312.188868
1.857420 0.614186 1.069827 167.023532 -5.832770 84307.244699
-0.121296 -0.049344 1.190444 72.972573 -51.312541 100184.001892
-0.147218 0.223568 1.107121 157.958284 33.526552 88357.101474
-0.406016 0.547474 1.104637 160.381155 9.346777 87686.533804
0.030283 -0.121803 0.879292 208.164208 17.635753 66815.688599
-0.686828 0.805040 1.100909 160.634476 4.604691 87263.106906
-0.174670 -0.667475 1.093050 167.375686 -9.245653 86422.854062
0.706520 -0.193608 1.053390 142.817106 6.924322 84400.761817
1.176520 -0.231735 1.060404 150.799760 4.638348 84599.863513
-0.009399 -0.124879 0.914109 217.626838 -32.797195 70087.356463
1.682720 0.412264 1.064804 162.698992 -5.432351 84171.521669
-0.872595 -0.155501 1.111728 157.238947 -1.076941 88463.997439
-0.591910 -0.143786 1.118287 152.859808 -2.987262 89204.458978
-0.011651 0.125196 0.916243 215.720985 35.358055 70184.494382
-0.046842 0.116295 0.990064 185.736820 72.905259 77968.789909
-0.007171 -0.554753 1.083900 173.298465 -10.132935 85471.421385
0.121279 -0.009545 0.960530 19.287141 7.344232 78294.170225
-0.126577 0.008229 1.217917 47.167041 10.783993 103569.591483
-0.229632 -0.361551 1.105419 160.716895 -19.030285 87856.806262
0.620317 -0.281341 1.057455 154.219518 8.078004 84226.176030
1.887620 0.866875 1.074217 168.532848 -3.971437 84593.362651
-0.262934 -0.121648 1.142002 135.020665 -18.141221 92095.900866
0.477742 -0.781240 1.078398 174.742976 0.088610 84876.688469
-0.344646 0.177000 1.127661 145.486658 13.077314 90335.673845
-0.692916 0.334882 1.111396 156.876527 4.027515 88430.252599
0.031014 0.120747 0.880853 205.111945 -19.355988 66903.924430
0.607898 -0.481299 1.070165 170.321772 3.938892 84496.404523
1.045500 0.021414 1.052917 137.854824 -0.808661 84561.749180
0.740268 0.108158 1.049240 132.455182 -5.040258 84494.710908
-0.324854 -0.000389 1.145029 133.361749 0.016014 92383.027247
0.550985 0.037920 1.037202 117.612318 -2.953466 83959.849032
0.037769 -0.308434 1.050579 185.686848 -12.911125 82302.637511
0.630556 -0.093634 1.044341 125.343625 4.940224 84343.621106
0.999810 -0.178181 1.057332 145.058197 4.640179 84637.612707
-0.388686 -0.418856 1.109376 157.920696 -11.158412 88222.564743
1.440840 -0.246540 1.061461 154.744814 4.397653 84415.439214
1.197530 0.791889 1.074949 172.364408 -3.178689 84699.709149
-0.718769 -0.081951 1.114997 155.186121 -1.215359 88831.285354
-0.579660 -0.397965 1.110692 157.019518 -6.267356 88354.689274
0.192189 -0.054473 0.993119 74.902898 18.873325 80904.268421
0.934771 -0.093421 1.052725 136.864243 3.024606 84598.317463
0.916729 0.319882 1.062349 155.767342 -5.642938 84563.250783
-0.550303 0.038594 1.121714 150.607468 0.984177 89594.390937
-0.063548 -0.824641 1.091628 167.904253 -5.967441 86259.171813
-0.675252 0.122007 1.115844 154.386430 1.936598 88928.175608
-0.679829 -0.517689 1.106640 158.893387 -4.825333 87900.645854
0.037244 -0.165795 0.961906 202.711768 -2.232296 74468.084094
0.233598 0.094692 1.005648 105.020382 -19.364368 81406.358265
0.077485 -0.090786 0.906379 117.268440 56.669215 71165.829555
-0.886025 0.440281 1.107389 158.860561 1.919942 87981.188320
-0.251824 0.323403 1.112117 156.144616 18.195410 88578.747348
0.308905 0.024913 1.013823 87.717783 -3.113699 82656.836978
1.381000 0.103377 1.057280 148.487901 -2.066427 84352.022693
0.117585 0.133250 0.977113 152.013103 -29.336441 77272.845308
-0.573861 0.402188 1.111148 156.743334 6.424802 88406.292968
0.298861 0.116395 1.023470 120.253573 -15.937229 82623.881872
1.281310 -0.072377 1.056673 145.696169 1.991951 84482.701040
0.081872 0.174014 0.982058 186.839358 -11.414790 76640.203248
1.858830 0.287598 1.060490 161.651862 -5.108929 83758.321013