TITLE = "Example: 2D Finite Element Data"
VARIABLES = "X", "Y", "rho", "u", "v", "p"
ZONE NODES=1230, ELEMENTS = 2340, DATAPACKING = POINT, ZONETYPE = FEQUADRILATERAL, SOLUTIONTIME=8.399476e+00
-1.000000 -1.000000 1.046117 0.934814 -0.026119 1.065422
2.000000 -1.000000 0.962581 1.024818 0.040161 0.956759
2.000000 1.000000 0.962549 1.024604 -0.040282 0.956790
-1.000000 1.000000 1.046907 0.933427 0.028528 1.066566
0.100000 0.000000 0.622222 0.015709 -0.008360 0.678554
-0.850000 -1.000000 1.050963 0.923851 -0.038889 1.072401
-0.700000 -1.000000 1.057915 0.907934 -0.053866 1.082344
-0.550000 -1.000000 1.062524 0.897269 -0.064129 1.088887
-0.400000 -1.000000 1.065101 0.894672 -0.072770 1.092580
-0.250000 -1.000000 1.061582 0.901574 -0.076501 1.087658
-0.100000 -1.000000 1.052945 0.918558 -0.073094 1.075687
0.050000 -1.000000 1.038992 0.944306 -0.061293 1.056435
0.200000 -1.000000 1.022860 0.972761 -0.043673 1.034239
0.350000 -1.000000 1.006820 0.998628 -0.023829 1.012198
0.500000 -1.000000 0.993379 1.017871 -0.005499 0.993811
0.650000 -1.000000 0.984154 1.028675 0.008622 0.981334
0.800000 -1.000000 0.978947 1.032875 0.017735 0.974487
0.950000 -1.000000 0.975759 1.033648 0.023292 0.970721
1.100000 -1.000000 0.973112 1.033628 0.027286 0.967702
1.250000 -1.000000 0.971045 1.033105 0.029753 0.965467
1.400000 -1.000000 0.968850 1.032490 0.032016 0.963110
1.550000 -1.000000 0.966308 1.031860 0.034606 0.960236
1.700000 -1.000000 0.964120 1.031253 0.036793 0.957993
1.850000 -1.000000 0.962315 1.028701 0.039455 0.956034
2.000000 -0.900000 0.965635 1.024028 0.037333 0.962141
2.000000 -0.800000 0.963539 1.022370 0.039259 0.961605
2.000000 -0.700000 0.958169 1.018166 0.042502 0.957735
2.000000 -0.600000 0.950624 1.010573 0.045084 0.952540
2.000000 -0.500000 0.940068 0.997895 0.046304 0.945829
2.000000 -0.400000 0.928494 0.982719 0.045481 0.938907
2.000000 -0.300000 0.917195 0.964800 0.040981 0.932500
2.000000 -0.200000 0.905386 0.949014 0.031873 0.925055
2.000000 -0.100000 0.897939 0.936748 0.017910 0.920992
2.000000 0.000000 0.896123 0.928886 0.000611 0.921195
2.000000 0.100000 0.898008 0.936156 -0.016767 0.921272
2.000000 0.200000 0.903903 0.950802 -0.031049 0.923283
2.000000 0.300000 0.913785 0.965215 -0.040697 0.929084
2.000000 0.400000 0.927902 0.980813 -0.045386 0.938561
2.000000 0.500000 0.940370 0.998646 -0.047320 0.945700
2.000000 0.600000 0.949837 1.009801 -0.046221 0.951867
2.000000 0.700000 0.957630 1.017871 -0.043156 0.957173
2.000000 0.800000 0.963729 1.023454 -0.039102 0.961408
2.000000 0.900000 0.965627 1.024383 -0.037595 0.961920
1.850000 1.000000 0.962977 1.028268 -0.038657 0.957199
1.700000 1.000000 0.964898 1.031027 -0.036101 0.959072
1.550000 1.000000 0.966788 1.032662 -0.034385 0.960728
1.400000 1.000000 0.969318 1.033355 -0.031367 0.963572
1.250000 1.000000 0.972258 1.033280 -0.028613 0.966786
1.100000 1.000000 0.974102 1.034124 -0.026717 0.968544
0.950000 1.000000 0.976063 1.034774 -0.023981 0.970679
0.800000 1.000000 0.979197 1.033907 -0.018903 0.974636
0.650000 1.000000 0.984035 1.030441 -0.010197 0.981081
0.500000 1.000000 0.991324 1.022398 0.003270 0.990945
0.350000 1.000000 1.001142 1.005567 0.025023 1.004265
0.200000 1.000000 1.021379 0.974001 0.045424 1.032049
0.050000 1.000000 1.039069 0.943272 0.059935 1.056435
-0.100000 1.000000 1.053354 0.915176 0.073529 1.076126
-0.250000 1.000000 1.063446 0.896256 0.076456 1.090201
-0.400000 1.000000 1.066403 0.892395 0.073797 1.094442
-0.550000 1.000000 1.062651 0.895296 0.065659 1.089082
-0.700000 1.000000 1.056705 0.906852 0.055359 1.080623
-0.850000 1.000000 1.048900 0.922404 0.042277 1.069470
-1.000000 0.900000 1.054959 0.932083 0.019861 1.077987
-1.000000 0.800000 1.064177 0.924277 0.014562 1.091123
-1.000000 0.700000 1.072194 0.916038 0.012044 1.102610
-1.000000 0.600000 1.079872 0.907805 0.010799 1.113658
-1.000000 0.500000 1.086216 0.900545 0.009497 1.122809
-1.000000 0.400000 1.091954 0.894260 0.007941 1.131106
-1.000000 0.300000 1.096339 0.889481 0.005541 1.137453
-1.000000 0.200000 1.099935 0.885693 0.003963 1.142670
-1.000000 0.100000 1.102508 0.882346 0.002218 1.146411
-1.000000 0.000000 1.103319 0.881685 -0.000518 1.147588
-1.000000 -0.100000 1.102312 0.883017 -0.002111 1.146122
-1.000000 -0.200000 1.099931 0.885620 -0.003966 1.142664
-1.000000 -0.300000 1.096356 0.889485 -0.006042 1.137479
-1.000000 -0.400000 1.091661 0.894683 -0.006974 1.130674
-1.000000 -0.500000 1.085550 0.901381 -0.009204 1.121847
-1.000000 -0.600000 1.078421 0.909521 -0.010750 1.111566
-1.000000 -0.700000 1.071023 0.917389 -0.011944 1.100928
-1.000000 -0.800000 1.063339 0.925372 -0.014199 1.089922
-1.000000 -0.900000 1.054165 0.933548 -0.018038 1.076838
0.098769 0.015643 0.618139 0.031808 -0.048069 0.672392
0.095106 0.030902 0.606584 0.076735 -0.105608 0.656436
0.089101 0.045399 0.580852 0.174642 -0.191553 0.619158
0.080902 0.058778 0.539594 0.355363 -0.304777 0.556065
0.070711 0.070711 0.479152 0.642570 -0.418692 0.461134
0.058778 0.080902 0.428916 0.982737 -0.475316 0.377241
0.045399 0.089101 0.412619 1.248633 -0.410860 0.341682
0.030902 0.095106 0.437639 1.360836 -0.262169 0.362983
0.015643 0.098769 0.511025 1.355282 -0.058277 0.443168
-0.000000 0.100000 0.601760 1.283219 0.115123 0.547106
-0.015643 0.098769 0.705732 1.166112 0.271079 0.675147
-0.030902 0.095106 0.814487 1.025976 0.386745 0.815742
-0.045399 0.089101 0.927837 0.862466 0.468771 0.971084
-0.058778 0.080902 1.040086 0.693982 0.501704 1.131780
-0.070711 0.070711 1.142090 0.527227 0.496168 1.284033
-0.080902 0.058778 1.224984 0.380595 0.446215 1.411792
-0.089101 0.045399 1.291892 0.251354 0.370894 1.519648
-0.095106 0.030902 1.345934 0.150728 0.268607 1.608901
-0.098769 0.015643 1.378552 0.084405 0.141239 1.664090
-0.100000 -0.000000 1.391655 0.062324 0.003357 1.686043
-0.098769 -0.015643 1.375442 0.097066 -0.132306 1.657387
-0.095106 -0.030902 1.348031 0.154856 -0.260011 1.612333
-0.089101 -0.045399 1.300563 0.256748 -0.368747 1.534887
-0.080902 -0.058778 1.230057 0.383691 -0.453039 1.421586
-0.070711 -0.070711 1.142381 0.533848 -0.499442 1.284991
-0.058778 -0.080902 1.041922 0.693772 -0.509914 1.134352
-0.045399 -0.089101 0.934379 0.864457 -0.473655 0.979409
-0.030902 -0.095106 0.824026 1.024755 -0.397273 0.828710
-0.015643 -0.098769 0.702895 1.174308 -0.272102 0.672194
0.000000 -0.100000 0.596326 1.292449 -0.108765 0.541320
0.015643 -0.098769 0.508604 1.360120 0.069867 0.440814
0.030902 -0.095106 0.439007 1.363125 0.268477 0.364816
0.045399 -0.089101 0.410348 1.247122 0.420428 0.340317
0.058778 -0.080902 0.428125 0.988397 0.469853 0.377283
0.070711 -0.070711 0.483864 0.652325 0.405535 0.468048
0.080902 -0.058778 0.538275 0.348825 0.293522 0.556639
0.089101 -0.045399 0.580519 0.168404 0.173921 0.621309
0.095106 -0.030902 0.605849 0.072787 0.087103 0.657483
0.098769 -0.015643 0.616867 0.023393 0.030042 0.671913
1.018900 -0.080189 0.907323 0.760345 0.017180 0.966200
0.605324 0.373875 0.935635 1.001182 -0.034292 0.940117
0.549603 -0.333358 0.925285 0.995541 0.037975 0.931331
-0.472821 -0.412832 1.109113 0.863147 -0.066355 1.156664
-0.473887 0.403052 1.111747 0.858374 0.064640 1.160512
0.199479 0.481585 0.942880 1.083345 0.050265 0.928669
0.170789 -0.439421 0.935789 1.092449 -0.063914 0.921528
-0.467039 0.027294 1.153282 0.793966 0.003389 1.222367
0.458343 0.040246 0.829175 0.569106 -0.029628 0.906902
-0.159228 0.384410 1.095184 0.879601 0.158241 1.139387
-0.159763 -0.380071 1.094574 0.884901 -0.160234 1.139075
0.314955 -0.193972 0.844774 0.944856 0.065773 0.860385
-0.284309 -0.177063 1.179689 0.743642 -0.106220 1.264745
0.282350 0.167768 0.811958 0.893587 -0.086354 0.834373
0.142398 -0.235796 0.793792 1.189129 0.007277 0.755782
0.272653 -0.016883 0.747663 0.375823 0.028810 0.825930
-0.020974 -0.266503 0.988856 1.006074 -0.219632 1.003394
0.112578 0.271787 0.848349 1.169702 0.062241 0.817981
1.417860 0.328012 0.938685 0.926989 -0.032822 0.962950
-0.287115 0.168595 1.179289 0.742928 0.107600 1.264621
1.457830 -0.339509 0.940586 0.937783 0.032428 0.962415
-0.023788 0.236645 0.971375 1.025610 0.235774 0.983391
0.196778 -0.117893 0.742541 0.798725 0.117703 0.773056
0.996374 0.326617 0.940423 0.924967 -0.035008 0.965115
-0.253516 0.019952 1.237184 0.623813 0.008722 1.358748
0.936381 -0.541081 0.962261 1.007980 0.027899 0.964920
-0.114248 -0.188816 1.128586 0.794012 -0.273774 1.204075
0.730129 -0.097741 0.887756 0.712459 0.029808 0.952670
-0.109587 0.174196 1.131314 0.778883 0.286121 1.212863
0.138391 0.160258 0.708764 1.126854 -0.113143 0.678582
1.379720 0.008384 0.912845 0.818535 0.000262 0.960782
0.181408 0.073797 0.696234 0.478741 -0.127400 0.755125
-0.199017 -0.082436 1.253810 0.596234 -0.135131 1.389913
-0.168506 0.101803 1.238748 0.590746 0.197403 1.373846
0.046420 -0.193352 0.787711 1.212421 -0.114122 0.755164
-0.700915 -0.176538 1.110985 0.865603 -0.016526 1.158938
0.861837 0.118494 0.902847 0.756318 -0.029473 0.962054
-0.706427 0.212984 1.110605 0.865519 0.018051 1.158415
1.658740 -0.628648 0.957950 1.011728 0.034354 0.960146
0.046889 0.175512 0.733745 1.255913 0.086118 0.693202
0.444490 -0.661547 0.963210 1.049908 -0.007057 0.954541
1.175660 -0.334071 0.945410 0.937911 0.032976 0.966894
1.305580 -0.647245 0.966187 1.013298 0.028804 0.967679
-0.681200 0.645174 1.081232 0.900360 0.043140 1.115853
-0.682147 -0.646925 1.080700 0.901184 -0.042612 1.115085
1.664120 0.126694 0.914881 0.878520 -0.016137 0.950466
0.187658 -0.016452 0.689836 0.247812 0.038922 0.760448
-0.032700 -0.682880 1.044378 0.958164 -0.099344 1.064711
-0.301892 -0.620942 1.082425 0.898727 -0.092165 1.118071
0.838424 0.649114 0.967577 1.026616 -0.021693 0.964240
1.196490 0.628850 0.967134 1.013447 -0.027894 0.968198
-0.294896 0.678154 1.077560 0.903231 0.090595 1.110965
0.111301 -0.137182 0.638102 1.147220 0.159971 0.599637
0.895976 -0.295295 0.937370 0.915849 0.037962 0.964275
0.021504 0.408470 0.991442 1.025370 0.140259 0.995573
-0.004841 0.692294 1.036321 0.964431 0.095787 1.053183
1.674290 0.556160 0.953513 1.002746 -0.035627 0.957914
0.498697 -0.149457 0.866036 0.773687 0.060431 0.916740
1.158920 0.126001 0.915644 0.808271 -0.023813 0.965647
0.465582 0.663825 0.962780 1.047860 0.003730 0.953819
1.701830 -0.162999 0.917225 0.897869 0.022969 0.948330
0.389198 0.373076 0.910031 1.067898 -0.022656 0.896568
0.356592 -0.388661 0.907107 1.083081 0.018540 0.889700
-0.010486 -0.168150 0.869733 1.105914 -0.260670 0.867898
0.657591 0.090686 0.878938 0.708703 -0.036890 0.942853
-0.133766 -0.116038 1.216790 0.620255 -0.276702 1.348495
-0.172520 -0.013578 1.313755 0.432746 -0.029891 1.502794
0.147744 -0.062150 0.658103 0.421087 0.134146 0.710858
-0.040884 0.162700 0.953292 0.987121 0.326104 0.979726
0.025398 -0.431379 1.000023 1.019897 -0.133993 1.007812
0.696388 -0.555623 0.958507 1.030316 0.022311 0.954861
0.083724 0.138121 0.612861 1.237894 -0.135377 0.560677
-0.710788 -0.415639 1.096686 0.883696 -0.030460 1.138150
-0.463933 0.216716 1.136759 0.819950 0.046176 1.197626
-0.491327 -0.166902 1.137098 0.821609 -0.036612 1.197887
0.452600 0.206978 0.876479 0.889031 -0.058019 0.905548
1.219990 -0.124977 0.917078 0.817684 0.021724 0.965416
-0.079392 0.129555 1.091102 0.767764 0.379680 1.177783
-0.318120 0.339142 1.129621 0.828914 0.105430 1.187813
0.392734 -0.083578 0.818030 0.611934 0.062189 0.887964
0.252544 -0.310474 0.865328 1.117461 0.020225 0.839801
0.801486 0.318729 0.936473 0.932750 -0.038435 0.959161
0.206156 -0.678051 0.992317 1.025204 -0.058236 0.993261
0.251076 0.312721 0.867641 1.107425 -0.020762 0.845637
-0.702192 0.421936 1.097583 0.882933 0.031621 1.139466
0.112148 0.092928 0.605501 0.737062 -0.225051 0.614213
-0.675872 0.017881 1.117522 0.855738 0.000794 1.168550
0.058916 -0.145924 0.641467 1.299963 0.031854 0.588610
1.715310 -0.408971 0.939397 0.970583 0.036541 0.952661
-0.078837 -0.131553 1.083490 0.787914 -0.381776 1.167316
-0.146547 -0.055313 1.300969 0.442239 -0.188463 1.490913
-0.149821 0.037395 1.314361 0.394012 0.138831 1.513627
0.726862 -0.269828 0.924251 0.912218 0.044436 0.950949
-0.308731 -0.342428 1.126158 0.835391 -0.114253 1.183130
0.231600 0.718560 0.992680 1.019315 0.053790 0.993021
-0.110115 0.086938 1.227178 0.527509 0.347908 1.388305
0.864648 -0.030799 0.894048 0.706248 0.006607 0.961183
0.128386 0.052582 0.632152 0.300038 -0.141570 0.683541
0.143802 0.011317 0.645965 0.116866 -0.035121 0.707758
0.076928 -0.341859 0.931500 1.092735 -0.115859 0.920375
1.213550 0.313696 0.938006 0.914183 -0.032809 0.965214
-0.194749 0.274268 1.138028 0.814561 0.164991 1.203563
1.763580 0.336032 0.930089 0.951742 -0.035655 0.948361
1.436730 0.592179 0.961919 1.005607 -0.030604 0.965621
0.353283 0.072572 0.805356 0.581375 -0.065622 0.876827
0.428981 -0.263041 0.893185 0.978761 0.047156 0.902744
0.583060 -0.040377 0.856221 0.623957 0.019599 0.930632
1.770960 0.770083 0.963933 1.026184 -0.035262 0.961350
-0.367387 -0.061166 1.183804 0.743287 -0.027608 1.269479
1.515060 -0.138786 0.918683 0.862135 0.019811 0.957859
0.225579 -0.195780 0.799530 1.034502 0.074827 0.792419
1.010770 0.079370 0.905643 0.760166 -0.018733 0.964212
-0.283363 0.509178 1.096942 0.882001 0.105853 1.139423
1.040230 -0.242354 0.931412 0.878399 0.034127 0.966876
0.011782 0.144681 0.728901 1.236952 0.173905 0.694395
-0.089874 0.542283 1.052923 0.949347 0.124993 1.077386
-0.486286 0.606805 1.088676 0.889265 0.066405 1.126801
-0.209482 -0.269288 1.139980 0.802944 -0.163560 1.206673
-0.494326 -0.604742 1.087017 0.891393 -0.066567 1.124406
0.281138 -0.110223 0.788801 0.704670 0.097481 0.841021
1.474450 0.161433 0.920539 0.861901 -0.020999 0.959595
0.465808 -0.495327 0.939212 1.061963 0.013070 0.927379
0.318264 -0.536366 0.943116 1.076730 -0.019015 0.929517
0.832310 -0.756431 0.972302 1.032316 0.018902 0.967349
1.071800 -0.752861 0.972201 1.026559 0.024818 0.969552
-0.197108 -0.167291 1.189030 0.714001 -0.177267 1.284295
0.103525 -0.088985 0.580750 0.757085 0.244944 0.582892
0.199123 0.233732 0.803112 1.124364 -0.049084 0.777530
0.595165 0.218067 0.900810 0.871034 -0.050599 0.936042
-0.108705 0.266780 1.091951 0.874469 0.217763 1.141646
-0.110924 -0.535281 1.059502 0.939626 -0.127972 1.087019
-0.569132 -0.297058 1.116403 0.854619 -0.040122 1.167148
-0.824842 -0.057543 1.106378 0.875038 -0.003843 1.152100
0.654251 0.577125 0.958798 1.036012 -0.018145 0.952861
1.314580 -0.278230 0.936651 0.907487 0.032028 0.965674
1.318730 -0.440549 0.953536 0.972173 0.031743 0.966399
1.145610 -0.522224 0.961230 0.995108 0.030002 0.967767
1.800820 -0.000560 0.906921 0.891152 0.001023 0.939955
1.487560 -0.528003 0.956077 0.992657 0.032086 0.963562
0.359673 0.526449 0.940682 1.073665 0.008449 0.926148
0.923434 -0.154725 0.914292 0.803787 0.033137 0.964793
-0.576553 0.310198 1.114480 0.856877 0.041023 1.164339
-0.576628 0.133927 1.127638 0.836657 0.019191 1.183727
0.051110 0.540686 1.006377 1.013165 0.108788 1.013439
-0.356278 0.079988 1.181152 0.741177 0.037548 1.265873
1.012680 0.535921 0.962680 1.005609 -0.027798 0.965690
0.782859 -0.417270 0.948515 0.988016 0.033867 0.957119
1.598000 0.283752 0.930063 0.921020 -0.030697 0.955841
0.637201 -0.182297 0.895347 0.821540 0.049595 0.939771
1.135590 -0.025739 0.908094 0.770688 0.005806 0.965081
0.264669 0.062322 0.751797 0.490511 -0.073270 0.821095
-0.113186 -0.278647 1.091134 0.871334 -0.215371 1.140350
0.754793 0.009161 0.883098 0.673529 -0.005909 0.954018
0.626052 -0.772158 0.973353 1.035296 0.007517 0.967491
0.122060 0.388602 0.925155 1.102301 0.084563 0.907846
-0.826954 -0.286691 1.099020 0.883975 -0.014708 1.141403
0.092531 -0.574718 1.002051 1.018557 -0.093413 1.007585
-0.261440 -0.478753 1.095731 0.884392 -0.116662 1.138153
-0.843420 0.329310 1.097577 0.886318 0.014218 1.139311
-0.808052 0.094918 1.107273 0.872807 0.004649 1.153419
1.311630 0.188755 0.922145 0.854588 -0.024930 0.962735
0.345116 0.262402 0.873892 1.024998 -0.046525 0.871454
1.544490 0.007652 0.913855 0.845613 -0.000088 0.956535
-0.436140 -0.287265 1.131677 0.827562 -0.065928 1.190202
1.818970 -0.749468 0.961727 1.023513 0.037020 0.960143
0.030697 0.311424 0.943275 1.077638 0.152453 0.936334
-0.827931 0.546291 1.084848 0.900031 0.022713 1.120924
0.738903 0.188537 0.906524 0.813898 -0.045006 0.954181
-0.843155 -0.568667 1.082043 0.903690 -0.022687 1.116868
0.209086 0.142718 0.758941 0.890908 -0.112114 0.776138
-0.031342 -0.131360 0.875356 1.043645 -0.351243 0.889586
0.010707 -0.134638 0.695521 1.259041 -0.151382 0.659015
1.007140 0.774257 0.973532 1.029470 -0.023696 0.969817
-0.419160 -0.789513 1.073472 0.900137 -0.074222 1.104802
-0.182013 0.181637 1.177964 0.732670 0.195068 1.269524
0.130218 -0.029285 0.631574 0.141216 0.064805 0.689869
0.492917 0.465074 0.939150 1.048314 -0.019965 0.930555
1.028840 -0.387125 0.950228 0.959227 0.033528 0.966412
1.836690 -0.567615 0.949626 1.005709 0.040888 0.953353
1.585740 0.739399 0.965765 1.024676 -0.031392 0.963852
-0.834419 0.736598 1.069960 0.915510 0.027967 1.099515
-0.827062 -0.753694 1.068306 0.916366 -0.030261 1.097167
1.288270 0.470539 0.955854 0.979645 -0.031821 0.966504
0.649487 0.786271 0.973552 1.034310 -0.009719 0.967743
1.488790 -0.746904 0.967208 1.023363 0.029776 0.965971
0.054090 0.124127 0.555134 1.309286 -0.141710 0.493078
0.068100 -0.265861 0.868824 1.146724 -0.111112 0.846179
0.164088 -0.324222 0.870737 1.144475 -0.035394 0.842647
0.800337 -0.198781 0.916974 0.848794 0.041468 0.957381
-0.196171 -0.783101 1.062911 0.918386 -0.088874 1.090002
-0.566153 0.782786 1.073085 0.902003 0.060346 1.104195
1.827040 -0.278643 0.923616 0.945559 0.035443 0.943466
-0.031229 0.130077 0.885227 1.026129 0.351931 0.899753
-0.050410 -0.356708 1.035943 0.964052 -0.179171 1.059744
1.846830 0.180112 0.911928 0.922489 -0.025468 0.937569
1.335020 0.786348 0.971076 1.027496 -0.027367 0.968288
0.165811 -0.174489 0.741564 1.097916 0.094720 0.718566
0.097286 0.210225 0.761885 1.228025 0.011230 0.720297
0.225552 -0.064543 0.734331 0.484658 0.097432 0.801172
0.545017 0.118227 0.861776 0.702347 -0.048810 0.924688
0.042983 0.241534 0.863694 1.157265 0.144561 0.842583
0.966202 0.202224 0.920320 0.837489 -0.036044 0.964256
-0.100172 -0.086883 1.209270 0.539474 -0.391518 1.369942
-0.139148 -0.014102 1.343903 0.302831 -0.060629 1.575410
-0.565119 -0.051409 1.131869 0.832374 -0.008615 1.189896
0.737950 0.458190 0.952820 1.005230 -0.028063 0.956216
0.338874 -0.280097 0.879247 1.042415 0.041764 0.872857
0.403161 -0.174607 0.854501 0.849622 0.068059 0.889996
0.657647 -0.392632 0.941603 1.001638 0.033826 0.946484
0.068406 -0.110577 0.511343 1.217312 0.274122 0.453689
0.104329 -0.192257 0.731312 1.235192 0.021655 0.686929
1.538800 0.456517 0.948338 0.973299 -0.034017 0.961086
-0.583061 -0.491850 1.096750 0.880570 -0.049581 1.138419
0.498169 0.315220 0.912997 0.995644 -0.040818 0.919074
1.607290 -0.277319 0.929812 0.923993 0.031273 0.954735
0.903007 0.430305 0.952234 0.981285 -0.030689 0.962389
1.833680 0.496743 0.943322 0.994050 -0.041535 0.950044
0.356687 -0.007073 0.791430 0.461789 0.008799 0.872975
-0.055971 -0.212512 1.031252 0.931550 -0.274614 1.067465
-0.154957 0.804594 1.059513 0.920773 0.088427 1.085082
-0.392381 -0.509610 1.099247 0.875708 -0.084212 1.142436
-0.280650 -0.076422 1.211929 0.686200 -0.064952 1.315092
0.292382 0.422110 0.911972 1.100403 0.005567 0.891389
-0.362310 0.236874 1.149774 0.797306 0.080417 1.217813
0.477425 -0.060281 0.834333 0.596086 0.038290 0.909176
-0.571339 0.506199 1.095266 0.882779 0.053606 1.136276
-0.001670 0.190324 0.878761 1.115355 0.233288 0.872451
-0.254097 0.101578 1.214230 0.669199 0.097933 1.321663
1.105120 -0.143923 0.917547 0.813669 0.027025 0.966628
-0.041322 0.303642 1.023189 0.973491 0.201773 1.043733
0.339618 -0.814227 0.994675 1.013939 -0.031915 0.995665
1.251620 0.048907 0.911758 0.795744 -0.008518 0.964345
0.222534 0.030713 0.711556 0.331911 -0.050541 0.783278
1.344740 -0.121075 0.917856 0.832936 0.019717 0.963153
1.114540 0.427041 0.953680 0.970746 -0.031771 0.966605
0.085518 0.098307 0.533739 0.950914 -0.304524 0.504476
0.367881 0.160229 0.840987 0.821590 -0.072956 0.880664
0.098498 -0.819554 1.026142 0.971632 -0.070311 1.038744
-0.123168 0.047261 1.319631 0.327852 0.235573 1.541721
0.156355 0.116705 0.701668 0.838128 -0.155914 0.718041
-0.622320 -0.803697 1.069922 0.905694 -0.054694 1.099616
-0.065187 0.213853 1.038724 0.928822 0.269595 1.077415
1.082250 0.225220 0.925342 0.856212 -0.033985 0.965499
0.125512 0.029853 0.628897 0.136402 -0.082314 0.684763
0.109250 0.066551 0.600517 0.419972 -0.204110 0.634912
-0.422008 0.322333 1.126532 0.835513 0.070916 1.182542
1.857330 -0.128940 0.908688 0.916153 0.020802 0.935983
0.000769 -0.225009 0.918587 1.079034 -0.214696 0.916237
-0.366106 0.430804 1.112384 0.857186 0.090611 1.161811
0.267857 -0.399049 0.901457 1.111213 -0.006302 0.878601
0.150541 -0.105079 0.688979 0.801110 0.149888 0.708374
0.178366 0.303964 0.856626 1.152487 0.018735 0.826386
0.684698 0.289971 0.928641 0.929343 -0.043280 0.952163
0.957570 -0.000602 0.900285 0.726292 -0.001101 0.964826
-0.389102 -0.158579 1.160690 0.781284 -0.055798 1.233901
0.546023 -0.234379 0.898949 0.898224 0.053030 0.927598
0.910557 -0.421905 0.953817 0.982586 0.032192 0.963730
0.108646 -0.067352 0.596301 0.436875 0.193823 0.630861
-0.099327 -0.456234 1.061580 0.937237 -0.147355 1.091162
0.203233 -0.261736 0.824942 1.141398 0.030502 0.794612
0.377543 0.824172 0.990763 1.018026 0.024244 0.990145
-0.082257 0.100174 1.130218 0.658123 0.421641 1.250324
1.647650 -0.817679 0.966646 1.028281 0.031741 0.963793
0.274315 -0.244239 0.845084 1.066930 0.050077 0.831878
1.578790 -0.443754 0.947476 0.974993 0.034025 0.959753
0.100168 0.832319 1.026172 0.969989 0.071449 1.038624
-0.058378 -0.175054 1.025665 0.918282 -0.312890 1.069565
0.207800 0.383790 0.897787 1.121570 0.030040 0.873570
0.342161 -0.133532 0.820309 0.753175 0.083635 0.869814
-0.444939 0.141246 1.148659 0.799890 0.038034 1.215557
1.315490 -0.872089 0.971382 1.030928 0.028479 0.967199
-0.865059 -0.417290 1.090771 0.893935 -0.016314 1.129439
-0.709884 -0.311897 1.102871 0.876377 -0.025568 1.147113
1.679740 -0.030747 0.911090 0.872052 0.004493 0.948273
0.174549 0.625117 0.986504 1.033577 0.067947 0.985384
0.684989 -0.016163 0.873383 0.649337 0.003590 0.946516
-0.067929 -0.111321 1.050483 0.782201 -0.437672 1.134615
-0.204812 0.054196 1.260647 0.554819 0.090678 1.403219
0.447176 -0.355236 0.916736 1.044445 0.029711 0.909331
0.846429 0.828845 0.975710 1.032975 -0.019302 0.970887
1.861410 -0.414902 0.935461 0.981246 0.041649 0.945849
-0.870879 0.214659 1.101849 0.881800 0.008946 1.145490
0.206502 -0.551495 0.964787 1.061136 -0.058159 0.957745
-0.255029 0.410444 1.110321 0.859825 0.123239 1.159624
-0.180163 0.484193 1.083443 0.903024 0.131614 1.120829
0.813645 -0.560465 0.961723 1.020795 0.025073 0.960673
0.549199 -0.612685 0.957747 1.048826 0.010084 0.948858
0.273963 0.248535 0.849254 1.061947 -0.047808 0.837684
-0.077800 0.379344 1.056024 0.934308 0.173254 1.084831
-0.199919 0.619789 1.073118 0.914470 0.105021 1.105009
0.322302 -0.062499 0.786420 0.534317 0.075331 0.859256
0.234582 -0.149030 0.785429 0.892889 0.094320 0.806285
0.813198 -0.106696 0.895611 0.732848 0.027991 0.957962
-0.378616 0.829826 1.070593 0.897716 0.076592 1.100596
0.858806 0.226441 0.920516 0.852895 -0.039881 0.960885
0.444545 0.116584 0.842811 0.700138 -0.061158 0.903618
-0.333240 -0.249690 1.151197 0.793476 -0.095869 1.220258
-0.460705 -0.060951 1.153619 0.796606 -0.017711 1.222696
-0.277215 0.247605 1.154260 0.788400 0.122081 1.225748
-0.227554 -0.031927 1.256403 0.591192 -0.060034 1.391503
0.095490 -0.438637 0.966846 1.060436 -0.102845 0.962931
-0.122953 0.138911 1.177359 0.690209 0.288223 1.285401
0.168009 0.039937 0.676334 0.306024 -0.105739 0.740892
0.147569 0.213130 0.769802 1.184341 -0.038607 0.732590
1.857420 0.614186 0.953001 1.011747 -0.041331 0.954701
-0.121296 -0.049344 1.316355 0.349108 -0.249568 1.537676
-0.147218 0.223568 1.141560 0.801699 0.214024 1.214381
-0.406016 0.547474 1.095342 0.881920 0.079833 1.136645
0.030283 -0.121803 0.574350 1.341621 0.029891 0.515819
-0.686828 0.805040 1.067677 0.910069 0.048876 1.096371
-0.174670 -0.667475 1.062262 0.928990 -0.102765 1.089593
0.706520 -0.193608 0.906467 0.836973 0.045719 0.948910
1.176520 -0.231735 0.930117 0.871534 0.031482 0.967462
-0.009399 -0.124879 0.748844 1.183401 -0.256064 0.727810
1.682720 0.412264 0.939026 0.966971 -0.036029 0.953225
-0.872595 -0.155501 1.103039 0.880147 -0.006791 1.147214
-0.591910 -0.143786 1.125024 0.842384 -0.018900 1.179735
-0.011651 0.125196 0.757993 1.164535 0.265951 0.736942
-0.046842 0.116295 0.942812 0.921094 0.412792 0.983643
-0.007171 -0.554753 1.031920 0.980405 -0.117218 1.048703
0.121279 -0.009545 0.628286 0.058102 0.017749 0.686465
-0.126577 0.008229 1.363124 0.229399 0.051822 1.617934
-0.229632 -0.361551 1.114509 0.854099 -0.141741 1.166971
0.620317 -0.281341 0.918364 0.936702 0.046997 0.938696
1.887620 0.866875 0.965056 1.026677 -0.036787 0.961490
-0.262934 -0.121648 1.204637 0.697876 -0.100040 1.304386
0.477742 -0.781240 0.979336 1.031216 -0.009665 0.975134
-0.344646 0.177000 1.165334 0.768999 0.076087 1.241804
-0.692916 0.334882 1.104249 0.874437 0.027881 1.149155
0.031014 0.120747 0.563522 1.346253 -0.041911 0.500895
0.607898 -0.481299 0.948639 1.032236 0.024362 0.944847
1.045500 0.021414 0.904436 0.749100 -0.006356 0.965167
0.740268 0.108158 0.891691 0.733099 -0.036495 0.953659
-0.324854 -0.000389 1.204228 0.700225 -0.000118 1.302530
0.550985 0.037920 0.849410 0.618280 -0.021126 0.923194
0.037769 -0.308434 0.937743 1.080683 -0.148294 0.931371
0.630556 -0.093634 0.873144 0.684021 0.036534 0.941357
0.999810 -0.178181 0.920959 0.827871 0.032823 0.967330
-0.388686 -0.418856 1.111894 0.859294 -0.083176 1.161004
1.440840 -0.246540 0.930387 0.896120 0.029999 0.962181
1.197530 0.791889 0.972668 1.028491 -0.026058 0.969479
-0.718769 -0.081951 1.112706 0.863686 -0.007936 1.161440
-0.579660 -0.397965 1.105891 0.869488 -0.044946 1.151719
0.192189 -0.054473 0.703511 0.407640 0.102063 0.768333
0.934771 -0.093421 0.904154 0.751247 0.022166 0.964055
0.916729 0.319882 0.938447 0.925559 -0.036241 0.962755
-0.550303 0.038594 1.135036 0.825612 0.005102 1.194706
-0.063548 -0.824641 1.051747 0.933662 -0.085026 1.074267
-0.675252 0.122007 1.116353 0.856304 0.011714 1.166872
-0.679829 -0.517689 1.090098 0.890796 -0.038219 1.128652
0.037244 -0.165795 0.730920 1.252902 -0.102153 0.693042
0.233598 0.094692 0.745479 0.643559 -0.109260 0.797349
0.077485 -0.090786 0.494237 0.915408 0.363377 0.462170
-0.886025 0.440281 1.090223 0.895401 0.013493 1.128637
-0.251824 0.323403 1.132545 0.823777 0.125435 1.192763
0.308905 0.024913 0.765719 0.424097 -0.020731 0.844227
1.381000 0.103377 0.915378 0.833287 -0.014986 0.960168
0.117585 0.133250 0.649392 1.111291 -0.159666 0.615281
-0.573861 0.402188 1.107565 0.866765 0.045897 1.154183
0.298861 0.116395 0.797648 0.740455 -0.092611 0.844815
1.281310 -0.072377 0.914583 0.811139 0.014474 0.964171
0.081872 0.174014 0.697994 1.260882 -0.018452 0.650369
1.858830 0.287598 0.921078 0.948141 -0.035790 0.940345
0.091891 0.333445 0.908493 1.117119 0.100125 0.889825
0.390809 -0.461603 0.927564 1.076353 0.008570 0.912321
0.228437 -0.006354 0.719551 0.300629 0.018567 0.795598
0.890328 0.033074 0.896849 0.718105 -0.010783 0.962317
1.701530 0.259432 0.924912 0.923563 -0.030403 0.950068
1.213080 0.211024 0.925027 0.855646 -0.029152 0.965665
0.968222 -0.666874 0.969373 1.022700 0.024780 0.967621
-0.182026 -0.218460 1.154426 0.770917 -0.191083 1.231283
-0.064725 0.486224 1.046328 0.957709 0.140120 1.069144
0.156388 -0.016301 0.655979 0.163380 0.032736 0.719985
-0.551956 0.222448 1.123770 0.841945 0.034543 1.178084
0.062488 0.100081 0.466138 1.163188 -0.354815 0.407717
1.467220 -0.052475 0.914726 0.837385 0.008882 0.958969
0.783165 -0.322014 0.937146 0.945433 0.040053 0.956247
1.714660 -0.274316 0.927011 0.934437 0.032396 0.949329
0.340214 0.673425 0.971417 1.043714 0.027217 0.964659
-0.174398 -0.475334 1.081799 0.907094 -0.133398 1.118770
0.322408 -0.669298 0.975008 1.042586 -0.031874 0.969864
1.320720 0.297513 0.935588 0.910093 -0.032027 0.963616
0.834320 0.520204 0.959287 1.010399 -0.025939 0.961091
-0.217533 -0.568422 1.078137 0.908631 -0.111221 1.112532
1.489400 0.853158 0.969298 1.030679 -0.030178 0.965139
0.088300 -0.677770 1.016430 0.996256 -0.085558 1.026271
0.960852 -0.246286 0.930164 0.878080 0.036638 0.965586
1.903340 -0.832494 0.964697 1.025177 0.036994 0.961957
-0.146211 0.318682 1.103698 0.863598 0.179921 1.153718
-0.911203 0.021152 1.104060 0.879741 0.000104 1.148680
0.108051 0.044612 0.605004 0.179798 -0.141467 0.652025
1.390860 0.492187 0.956063 0.983662 -0.032225 0.965825
0.068835 0.456739 0.981612 1.041259 0.113937 0.981042
1.681270 -0.518367 0.949318 0.993456 0.036043 0.956714
0.562545 -0.107807 0.865499 0.701212 0.047863 0.929313
0.594739 0.479819 0.947155 1.031639 -0.023647 0.942791
0.541758 0.567958 0.953425 1.048202 -0.011879 0.944285
1.671380 0.850421 0.966695 1.029756 -0.033024 0.962764
1.610240 -0.129445 0.916827 0.874230 0.018734 0.953266
1.894480 -0.655767 0.955345 1.015730 0.041683 0.955941
0.089609 0.075935 0.539755 0.581027 -0.311290 0.544186
1.117490 0.323474 0.939831 0.918122 -0.033543 0.966307
0.257086 0.559780 0.955559 1.067410 0.040343 0.944556
0.662037 0.175447 0.896190 0.804657 -0.049221 0.944286
-0.896586 0.646745 1.076531 0.910437 0.018086 1.108895
-0.102759 0.061183 1.269935 0.363525 0.364770 1.474721
0.038610 -0.232539 0.860127 1.149788 -0.149877 0.839574
-0.498046 -0.492245 1.100114 0.874851 -0.062597 1.143434
0.425667 0.274149 0.892915 0.987855 -0.046352 0.900358
0.109123 -0.045289 0.604692 0.182217 0.125253 0.653998
-0.573378 -0.695451 1.079169 0.899709 -0.056562 1.112962
-0.900602 -0.656233 1.075084 0.912161 -0.018681 1.106818
0.122459 -0.282541 0.846763 1.165187 -0.049202 0.815950
0.964077 -0.846201 0.975275 1.032295 0.022494 0.970823
-0.045315 -0.109570 0.921858 0.930186 -0.428169 0.958952
-0.076760 -0.090121 1.114821 0.632838 -0.470701 1.237328
0.089181 -0.159691 0.668894 1.257588 0.065660 0.619503
-0.889732 0.837753 1.061008 0.924246 0.025873 1.086678