TITLE="foil"
VARIABLES="Iteration" "Residual_rho" "Residual_rhou" "Residual_rhov" "Residual_rhop"
ZONE  F=POINT
1 0.081979 0.161029 0.0741999 0.322338
51 0.00770579 0.0118765 0.008322 0.0305814
101 0.00369534 0.00615349 0.00443583 0.0138684
151 0.00239273 0.00381982 0.00299299 0.00859929
201 0.00170687 0.00268711 0.00199601 0.0063803
251 0.00126528 0.00192226 0.00149899 0.00481841
301 0.00100497 0.00147997 0.00115575 0.00366061
351 0.000807534 0.00116696 0.000885892 0.00288453
401 0.000667566 0.00094452 0.000747208 0.00229019
451 0.000558518 0.000775115 0.000600422 0.00190757
501 0.000481208 0.000723155 0.000496861 0.00156322
551 0.000411788 0.000666572 0.000427608 0.0012988
601 0.000363542 0.000610553 0.0003648 0.00113174
651 0.000325598 0.000556246 0.000317624 0.00097781
701 3.049963e-04 5.442329e-04 3.103640e-04 9.152177e-04
751 2.761616e-04 5.012277e-04 2.702433e-04 8.218761e-04
801 2.498314e-04 4.618059e-04 2.360612e-04 7.442678e-04
851 2.244680e-04 4.247844e-04 2.136517e-04 6.617670e-04
901 2.047710e-04 4.005813e-04 1.903114e-04 6.024118e-04
951 1.889608e-04 3.744122e-04 1.711704e-04 5.534690e-04
1001 1.726902e-04 3.477273e-04 1.529620e-04 5.057961e-04
1051 1.600608e-04 3.268260e-04 1.391207e-04 4.655161e-04
1101 1.483497e-04 3.084746e-04 1.262826e-04 4.306313e-04
1151 1.387998e-04 2.906235e-04 1.171268e-04 4.029739e-04
1201 1.286454e-04 2.758036e-04 1.082677e-04 3.733243e-04
1251 1.207180e-04 2.615526e-04 9.994495e-05 3.487554e-04
1301 1.129422e-04 2.494719e-04 9.277062e-05 3.261069e-04
1351 1.057817e-04 2.391452e-04 8.621100e-05 3.036437e-04
1401 1.001648e-04 2.281202e-04 8.108044e-05 2.872554e-04
1451 9.425085e-05 2.181680e-04 7.625227e-05 2.701686e-04
1501 8.973829e-05 2.089606e-04 7.203496e-05 2.570452e-04
1551 8.510771e-05 2.004930e-04 6.736621e-05 2.437664e-04
1601 8.031647e-05 1.935185e-04 6.385844e-05 2.299584e-04
1651 7.635011e-05 1.865008e-04 6.045191e-05 2.185458e-04
1701 7.306792e-05 1.799915e-04 5.791015e-05 2.086265e-04
1751 6.966217e-05 1.733108e-04 5.513357e-05 1.988284e-04
1801 6.638312e-05 1.670082e-04 5.228698e-05 1.891022e-04
1851 6.385689e-05 1.614916e-04 5.032752e-05 1.818883e-04
1901 6.121778e-05 1.561537e-04 4.820309e-05 1.743447e-04
1951 5.869426e-05 1.510827e-04 4.596844e-05 1.677636e-04
2001 5.666104e-05 1.460678e-04 4.367047e-05 1.610879e-04
2051 5.468638e-05 1.413379e-04 4.135073e-05 1.554778e-04
2101 5.273659e-05 1.366548e-04 3.992572e-05 1.499500e-04
2151 5.143528e-05 1.318810e-04 3.846913e-05 1.460849e-04
2201 5.003880e-05 1.279463e-04 3.696409e-05 1.422096e-04
2251 4.901099e-05 1.237230e-04 3.574012e-05 1.395990e-04
2301 4.802593e-05 1.197724e-04 3.461696e-05 1.369802e-04
2351 4.712767e-05 1.162275e-04 3.344687e-05 1.344598e-04
2401 4.653949e-05 1.124437e-04 3.224509e-05 1.329238e-04
2451 4.614138e-05 1.086767e-04 3.102471e-05 1.320947e-04
2501 4.594710e-05 1.055971e-04 3.013831e-05 1.317416e-04
2551 4.570876e-05 1.023083e-04 2.921649e-05 1.312784e-04
2601 4.538838e-05 9.944124e-05 2.826855e-05 1.305037e-04
2651 4.494273e-05 9.687973e-05 2.730263e-05 1.293652e-04
2701 4.438198e-05 9.438038e-05 2.632591e-05 1.278907e-04
2751 4.371640e-05 9.186164e-05 2.559690e-05 1.261086e-04
2801 4.295627e-05 8.918263e-05 2.486058e-05 1.240472e-04
2851 4.211170e-05 8.662145e-05 2.410479e-05 1.217349e-04
2901 4.119261e-05 8.452206e-05 2.333471e-05 1.191994e-04
2951 4.020859e-05 8.226674e-05 2.255503e-05 1.164679e-04
3001 3.916884e-05 7.999764e-05 2.176992e-05 1.135665e-04
3051 3.864214e-05 7.773743e-05 2.098318e-05 1.105203e-04
3101 3.972046e-05 7.549240e-05 2.019815e-05 1.073531e-04
3151 4.065764e-05 7.358567e-05 1.941781e-05 1.045693e-04
3201 4.145047e-05 7.155979e-05 1.868345e-05 1.054287e-04
3251 4.209725e-05 6.943457e-05 1.800106e-05 1.060242e-04
3501 4.345492e-05 5.832632e-05 1.513064e-05 1.058187e-04
4001 3.681705e-05 3.861661e-05 9.659119e-06 8.814812e-05
4501 2.533551e-05 2.252362e-05 5.809661e-06 6.159891e-05
5001 1.517268e-05 1.178193e-05 4.887456e-06 3.811115e-05
5501 8.259470e-06 5.596911e-06 3.957305e-06 2.209388e-05
6001 4.575488e-06 3.229093e-06 3.067152e-06 1.329997e-05
6501 4.186988e-06 2.423293e-06 2.270645e-06 1.182159e-05
7001 3.495232e-06 1.841850e-06 1.625492e-06 9.767848e-06
7501 2.645232e-06 1.657930e-06 1.131703e-06 7.292916e-06
8001 1.780623e-06 1.593942e-06 8.412106e-07 4.815727e-06
8501 1.028791e-06 1.412202e-06 6.566443e-07 2.942972e-06
9001 5.189558e-07 1.171295e-06 5.205890e-07 2.324433e-06
9501 5.200706e-07 9.108658e-07 4.028804e-07 1.790744e-06
10001 5.104338e-07 6.622902e-07 3.098900e-07 1.341513e-06
10501 4.673696e-07 4.643937e-07 2.405697e-07 1.057531e-06
10701 4.436551e-07 4.227656e-07 2.169014e-07 1.036755e-06
10751 4.387097e-07 4.037347e-07 2.089590e-07 1.060064e-06
10801 4.324219e-07 3.929193e-07 2.029665e-07 1.060727e-06
10851 4.247595e-07 3.812198e-07 1.981351e-07 1.060358e-06
10901 4.173290e-07 3.709906e-07 1.933976e-07 1.055984e-06
10951 4.103771e-07 3.596095e-07 1.882377e-07 1.047945e-06
11001 4.036278e-07 3.483516e-07 1.828749e-07 1.039426e-06
11051 3.967591e-07 3.376882e-07 1.775342e-07 1.030278e-06
11101 3.896500e-07 3.292770e-07 1.727373e-07 1.019875e-06
11151 3.823378e-07 3.221049e-07 1.679761e-07 1.008479e-06
11201 3.748931e-07 3.151470e-07 1.632317e-07 9.965304e-07
11251 3.673570e-07 3.082806e-07 1.584798e-07 9.841709e-07
11301 3.597445e-07 3.014235e-07 1.536990e-07 9.708978e-07
11351 3.520689e-07 2.945552e-07 1.488782e-07 9.560089e-07
11401 3.443537e-07 2.877021e-07 1.440184e-07 9.392874e-07
11451 3.366270e-07 2.809067e-07 1.391307e-07 9.211027e-07
11501 3.289111e-07 2.742048e-07 1.342326e-07 9.020291e-07
11551 3.212158e-07 2.676138e-07 1.293441e-07 8.824863e-07
11601 3.135411e-07 2.612155e-07 1.247944e-07 8.626381e-07
11651 3.058822e-07 2.550523e-07 1.209449e-07 8.424732e-07
11701 2.982351e-07 2.489915e-07 1.171133e-07 8.219271e-07
11751 2.905984e-07 2.430293e-07 1.133027e-07 8.009620e-07
11801 2.829723e-07 2.371596e-07 1.095140e-07 7.795914e-07
11901 2.675401e-07 2.407067e-07 1.116771e-07 7.578273e-07
11951 2.612895e-07 2.299036e-07 1.066657e-07 7.038117e-07
12001 2.544441e-07 2.222341e-07 9.770832e-08 6.902127e-07
12051 2.466977e-07 2.156661e-07 9.332196e-08 6.708810e-07
12101 2.383703e-07 2.076483e-07 8.957995e-08 6.476911e-07
12151 2.301211e-07 1.996617e-07 8.571863e-08 6.239720e-07
12201 2.228963e-07 1.933369e-07 8.214167e-08 6.011776e-07
12251 2.160180e-07 1.868943e-07 7.928183e-08 5.775986e-07
12301 2.092220e-07 1.808151e-07 7.821441e-08 5.533292e-07
12351 2.023782e-07 1.753434e-07 7.757707e-08 5.298190e-07
12401 1.954650e-07 1.710730e-07 7.693001e-08 5.075531e-07
12451 1.885382e-07 1.670268e-07 7.621203e-08 4.862031e-07
12501 1.816747e-07 1.630602e-07 7.539374e-08 4.654277e-07
12551 1.749295e-07 1.591026e-07 7.447718e-08 4.449593e-07
12601 1.683203e-07 1.551305e-07 7.348297e-08 4.245272e-07
12651 1.618349e-07 1.511443e-07 7.243670e-08 4.039518e-07
12701 1.554497e-07 1.471551e-07 7.149810e-08 3.832383e-07
12751 1.491456e-07 1.431768e-07 7.101001e-08 3.625438e-07
12801 1.429169e-07 1.392781e-07 7.049248e-08 3.420664e-07
12851 1.367708e-07 1.356092e-07 6.993808e-08 3.219516e-07
12901 1.308454e-07 1.319787e-07 6.934052e-08 3.088877e-07
12951 1.250826e-07 1.284154e-07 6.869610e-08 2.998604e-07
13001 1.194573e-07 1.250174e-07 6.800440e-08 2.910908e-07
13051 1.139763e-07 1.216740e-07 6.726814e-08 2.823963e-07
13101 1.089449e-07 1.183931e-07 6.649240e-08 2.738069e-07
13151 1.040952e-07 1.151844e-07 6.568359e-08 2.658598e-07
13201 9.936932e-08 1.120581e-07 6.484827e-08 2.582724e-07
13251 9.766232e-08 1.238794e-07 6.314714e-08 2.870525e-07
